ITEM: TIMESTEP
100000
ITEM: NUMBER OF ATOMS
2048
ITEM: BOX BOUNDS pp pp pp
-5.9752063287428863e+00 5.9752063287428863e+00
-5.9752063287428863e+00 5.9752063287428863e+00
-5.9752063287428863e+00 5.9752063287428863e+00
ITEM: ATOMS id type xs ys zs
14 1 0.425807 0.0489813 0.00689244
17 1 0.485408 0.00174419 0.00560187
23 1 0.610987 0.0503429 0.0499017
4 1 0.00875494 0.0568831 0.0532264
6 1 0.183849 0.064431 0.0100384
20 1 0.49186 0.0700552 0.0519876
18 1 0.555254 0.0692299 0.00040444
22 1 0.683863 0.0587746 0.00369027
26 1 0.815824 0.0576952 0.00799712
37 1 0.123909 0.121349 0.0106125
41 1 0.247026 0.114432 0.0090323
47 1 0.379868 0.116275 0.00386946
61 1 0.881399 0.118708 0.0117187
34 1 0.0563472 0.172414 0.00635937
42 1 0.30703 0.17337 0.000374753
50 1 0.563393 0.18751 0.00177154
58 1 0.811635 0.18247 0.00135006
65 1 0.0102675 0.247042 0.00947921
69 1 0.120406 0.235732 0.00469553
73 1 0.257521 0.24306 0.000163778
79 1 0.435081 0.256978 0.0549231
1871 1 0.505906 0.246008 0.00554552
89 1 0.757871 0.244143 0.00351015
66 1 0.0667486 0.307449 0.00782022
70 1 0.191216 0.308795 0.00352526
107 1 0.317622 0.317847 0.00284045
78 1 0.433945 0.323577 0.00414688
81 1 0.493352 0.309298 0.0528581
86 1 0.675878 0.304243 0.0149298
101 1 0.127701 0.365862 0.00120167
105 1 0.252113 0.380058 0.00289407
84 1 0.497117 0.37923 0.0065056
98 1 0.996283 0.37705 0.00440041
1896 1 0.0584821 0.434432 0.00902277
106 1 0.301723 0.440875 0.00409207
112 1 0.370827 0.391532 0.00132863
114 1 0.557814 0.433727 0.0020058
118 1 0.690298 0.434119 0.00515502
122 1 0.809621 0.431379 0.00380887
1892 1 0.93777 0.439647 0.00372246
142 1 0.497873 0.499536 0.00645463
153 1 0.758411 0.493313 0.000385793
149 1 0.62303 0.50713 0.0118769
154 1 0.815881 0.548342 0.00910353
1952 1 0.881772 0.503757 0.0194549
158 1 0.944801 0.551508 0.00323358
136 1 0.115671 0.559564 0.0544237
146 1 0.562975 0.562693 0.00372082
150 1 0.690394 0.567088 0.00528531
173 1 0.364187 0.620835 0.00485762
181 1 0.631535 0.62642 0.00748548
187 1 0.8715 0.631138 0.00602286
161 1 0.999512 0.617984 0.0047873
166 1 0.18414 0.69421 0.000681873
174 1 0.435789 0.674375 0.0042085
178 1 0.561191 0.683131 0.011439
1976 1 0.683703 0.690318 0.0059336
164 1 0.995659 0.687085 0.053346
197 1 0.116819 0.748947 0.00935792
201 1 0.252376 0.745575 0.00447864
205 1 0.373073 0.7362 0.00705398
209 1 0.502985 0.745287 0.00509253
213 1 0.625106 0.752333 0.0100769
217 1 0.738079 0.755745 0.00369443
194 1 0.0655324 0.814513 0.00699039
198 1 0.189295 0.816091 0.00288033
202 1 0.304449 0.814538 0.0045889
206 1 0.435178 0.801239 0.00571565
216 1 0.567062 0.809515 0.00604965
218 1 0.806931 0.802472 0.00445397
222 1 0.941455 0.811843 0.00309146
5 1 0.1304 0.876191 0.00705685
233 1 0.245052 0.872456 0.00458537
237 1 0.371516 0.869961 0.000487438
255 1 0.935793 0.884418 0.045553
226 1 0.0731404 0.935678 0.00133618
230 1 0.186871 0.937722 0.0176767
234 1 0.307408 0.930503 0.00293404
242 1 0.556705 0.934356 0.000632958
228 1 0.00523315 0.945518 0.0525614
9 1 0.251967 0.991484 0.00625447
19 1 0.552186 0.994222 0.0515336
281 1 0.681809 0.999898 0.0553468
29 1 0.873694 0.998045 0.00957984
7 1 0.200463 0.00136894 0.0626276
28 1 0.746877 0.0535531 0.0591085
8 1 0.12517 0.0592788 0.0803651
12 1 0.255399 0.0577447 0.063166
16 1 0.363363 0.0587555 0.0579123
32 1 0.876933 0.0590674 0.0662008
35 1 0.0714741 0.121077 0.0761043
39 1 0.185279 0.116132 0.0735551
45 1 0.316387 0.128376 0.0749272
305 1 0.427519 0.131224 0.0681083
51 1 0.573502 0.12443 0.0570199
55 1 0.690586 0.131315 0.0634096
59 1 0.810241 0.118571 0.0565687
63 1 0.950144 0.126264 0.0586587
36 1 0.0121339 0.186214 0.0789794
40 1 0.135487 0.181684 0.0656877
44 1 0.244075 0.180846 0.0697036
48 1 0.376259 0.196577 0.0565617
302 1 0.497774 0.187816 0.0612966
56 1 0.624608 0.187262 0.0661166
60 1 0.75971 0.18981 0.0713178
64 1 0.869589 0.181858 0.0767834
72 1 0.0775332 0.257921 0.0685417
71 1 0.188017 0.245136 0.0596824
75 1 0.313869 0.251156 0.05682
52 1 0.558434 0.242124 0.0697502
87 1 0.691157 0.233251 0.0605416
91 1 0.809595 0.251685 0.0659343
95 1 0.932586 0.243661 0.0705517
68 1 0.000405099 0.312702 0.0562505
104 1 0.137197 0.316899 0.0662646
76 1 0.250626 0.298178 0.0609681
80 1 0.370601 0.311813 0.062092
88 1 0.60783 0.31063 0.0612967
92 1 0.749219 0.316926 0.0594776
96 1 0.871627 0.306072 0.0599189
99 1 0.060692 0.369103 0.0669791
103 1 0.196642 0.386335 0.0668681
108 1 0.303343 0.371244 0.066709
365 1 0.370238 0.38183 0.110028
111 1 0.437196 0.385739 0.0645511
115 1 0.555204 0.37902 0.0682427
119 1 0.686618 0.378271 0.0621062
123 1 0.814105 0.369533 0.0680557
127 1 0.93253 0.371331 0.0652498
357 1 0.126241 0.438254 0.0665518
145 1 0.498704 0.437335 0.0613823
120 1 0.622677 0.431359 0.0574008
124 1 0.744919 0.443571 0.0626836
128 1 0.874404 0.430867 0.0568281
100 1 0.997876 0.428251 0.0649706
389 1 0.250142 0.448421 0.0704211
116 1 0.374452 0.452698 0.0589376
147 1 0.562067 0.494184 0.0627798
155 1 0.816561 0.488516 0.0683044
159 1 0.941411 0.491644 0.0701241
131 1 0.052518 0.503999 0.0676849
102 1 0.18448 0.500399 0.0575023
139 1 0.309401 0.503799 0.0568476
143 1 0.440924 0.50205 0.0624108
151 1 0.692138 0.503781 0.0618516
140 1 0.243897 0.557323 0.0605835
397 1 0.375521 0.558399 0.0629049
148 1 0.504365 0.569313 0.0588321
152 1 0.618763 0.570488 0.0617904
156 1 0.746305 0.569103 0.0639061
160 1 0.873007 0.55871 0.0814938
132 1 0.998052 0.56027 0.0646187
163 1 0.0537269 0.622786 0.0720033
167 1 0.177465 0.611607 0.06341
171 1 0.299167 0.618949 0.059157
175 1 0.430938 0.61663 0.0652978
179 1 0.562692 0.62767 0.0702332
183 1 0.690533 0.628883 0.0747836
188 1 0.815648 0.617692 0.0621169
191 1 0.938475 0.630853 0.0637915
168 1 0.125143 0.674727 0.0621396
172 1 0.237823 0.690043 0.0662938
176 1 0.361999 0.67693 0.065749
180 1 0.49632 0.677319 0.069331
184 1 0.625114 0.684728 0.0744158
182 1 0.75961 0.673414 0.060339
192 1 0.883443 0.691753 0.0618859
195 1 0.0564533 0.763966 0.0775228
199 1 0.183994 0.757485 0.056869
203 1 0.308978 0.740331 0.0670761
207 1 0.432053 0.731934 0.0714524
211 1 0.562133 0.754225 0.0647845
215 1 0.681684 0.748928 0.065009
219 1 0.819861 0.749721 0.0605533
223 1 0.941139 0.753129 0.0591748
200 1 0.112729 0.821195 0.0785254
204 1 0.250735 0.79804 0.0792154
208 1 0.360949 0.808006 0.0696639
212 1 0.495444 0.808444 0.0644567
466 1 0.623031 0.819021 0.0594887
220 1 0.740858 0.815947 0.0618964
224 1 0.874763 0.808787 0.0567208
196 1 0.994922 0.820812 0.0611024
227 1 0.0627287 0.879382 0.0570088
231 1 0.183681 0.874202 0.0718026
235 1 0.306053 0.868363 0.07066
239 1 0.4279 0.862621 0.0591614
243 1 0.569509 0.881217 0.0628595
247 1 0.683528 0.875296 0.0722614
251 1 0.812816 0.867862 0.0721929
481 1 0.999411 0.88708 0.110089
232 1 0.124602 0.937144 0.0722207
236 1 0.252985 0.928315 0.0703852
240 1 0.373413 0.929261 0.0569833
244 1 0.490965 0.930515 0.0604725
248 1 0.634824 0.934239 0.058559
256 1 0.860856 0.932786 0.0612902
3 1 0.065818 0.999044 0.0609319
11 1 0.316073 0.986678 0.0570131
15 1 0.427979 0.989655 0.062454
252 1 0.745989 0.946755 0.0640788
27 1 0.812839 0.999674 0.0655936
31 1 0.94397 0.999876 0.0610517
257 1 0.00986238 0.00668276 0.128018
273 1 0.502081 0.00238122 0.120842
277 1 0.611994 0.0106585 0.124097
278 1 0.67914 0.0534586 0.112239
508 1 0.74695 0.00302913 0.120565
258 1 0.0721446 0.0649828 0.139762
262 1 0.202846 0.0583125 0.129126
266 1 0.31925 0.0647062 0.127472
270 1 0.442303 0.0578178 0.116777
24 1 0.555632 0.0698483 0.123268
282 1 0.808044 0.0608224 0.116195
286 1 0.939081 0.063674 0.123396
293 1 0.132095 0.124592 0.133398
297 1 0.252458 0.123669 0.127176
43 1 0.372137 0.144477 0.135863
274 1 0.492994 0.122082 0.119214
309 1 0.629983 0.131849 0.119877
313 1 0.75037 0.119337 0.119791
317 1 0.875891 0.120879 0.123539
289 1 0.998492 0.121863 0.12793
290 1 0.0854668 0.192068 0.127638
294 1 0.190974 0.186105 0.130603
298 1 0.313743 0.198459 0.124526
301 1 0.435615 0.192919 0.125702
306 1 0.559389 0.179563 0.119604
310 1 0.690487 0.186414 0.126693
314 1 0.809902 0.184371 0.138427
318 1 0.945178 0.182454 0.12709
67 1 0.00536557 0.260169 0.126843
325 1 0.134016 0.264935 0.125491
329 1 0.24923 0.245774 0.123883
333 1 0.383229 0.25328 0.130979
337 1 0.491492 0.260145 0.124436
341 1 0.615025 0.245359 0.127063
345 1 0.754906 0.243414 0.128958
349 1 0.870062 0.245973 0.132718
322 1 0.0709741 0.315289 0.1342
326 1 0.194491 0.317187 0.121798
330 1 0.31639 0.301281 0.125099
334 1 0.441426 0.321431 0.11968
83 1 0.55097 0.315364 0.118445
342 1 0.671754 0.300637 0.119139
346 1 0.821383 0.315407 0.122895
350 1 0.933699 0.313398 0.115748
328 1 0.140526 0.376702 0.125571
361 1 0.248657 0.376157 0.127793
369 1 0.496026 0.380406 0.124023
373 1 0.624972 0.38646 0.129947
377 1 0.756256 0.365607 0.125003
381 1 0.873569 0.381012 0.120315
353 1 0.99314 0.369122 0.125983
354 1 0.0626061 0.439666 0.11612
366 1 0.437561 0.438615 0.128226
370 1 0.553876 0.437704 0.127063
378 1 0.805534 0.427988 0.121489
382 1 0.936519 0.429443 0.120181
359 1 0.184095 0.446612 0.127169
393 1 0.245615 0.499813 0.132211
362 1 0.312501 0.445551 0.1222
401 1 0.500202 0.499213 0.127351
405 1 0.633692 0.496772 0.125604
374 1 0.693573 0.446613 0.128445
413 1 0.879828 0.486643 0.117779
385 1 0.999638 0.491508 0.126915
135 1 0.114009 0.500233 0.127892
399 1 0.366181 0.506655 0.125335
409 1 0.746986 0.505336 0.121428
386 1 0.0608044 0.563464 0.134008
390 1 0.182155 0.558014 0.129247
394 1 0.30345 0.559947 0.124827
398 1 0.433128 0.557998 0.134437
402 1 0.558181 0.557901 0.114878
406 1 0.68498 0.55824 0.124545
157 1 0.803681 0.559182 0.129834
414 1 0.944092 0.559565 0.128156
421 1 0.114114 0.624104 0.125434
425 1 0.236069 0.616322 0.117674
429 1 0.374473 0.614921 0.119048
433 1 0.492251 0.617915 0.124677
437 1 0.630452 0.625215 0.12444
410 1 0.757082 0.624738 0.128785
445 1 0.874421 0.637533 0.118316
417 1 0.995612 0.619944 0.1333
418 1 0.0575766 0.690899 0.124264
422 1 0.17919 0.682732 0.123904
426 1 0.295841 0.674697 0.119392
430 1 0.441881 0.685869 0.131129
435 1 0.552809 0.693529 0.122597
438 1 0.688085 0.68403 0.134257
442 1 0.815573 0.696106 0.123828
446 1 0.952443 0.686942 0.126079
453 1 0.130667 0.751297 0.114576
428 1 0.247235 0.739106 0.13268
461 1 0.365379 0.737418 0.127736
465 1 0.499127 0.757287 0.128078
469 1 0.630088 0.7635 0.123987
473 1 0.743594 0.746438 0.113435
477 1 0.879012 0.750276 0.115746
449 1 0.996873 0.760586 0.132115
450 1 0.0525269 0.821814 0.130284
454 1 0.180711 0.814353 0.131131
458 1 0.312391 0.812332 0.13781
462 1 0.424451 0.79939 0.120537
472 1 0.563411 0.820275 0.131859
470 1 0.692563 0.814051 0.128747
474 1 0.810772 0.807219 0.123233
478 1 0.934892 0.81154 0.119537
485 1 0.131153 0.876334 0.138594
489 1 0.251555 0.866545 0.134327
493 1 0.382055 0.86909 0.14652
497 1 0.495289 0.876152 0.119984
501 1 0.625165 0.885178 0.125165
505 1 0.747274 0.877758 0.123945
509 1 0.880184 0.868504 0.119993
482 1 0.0670834 0.935779 0.131735
486 1 0.189569 0.935685 0.137127
490 1 0.322544 0.932206 0.128425
494 1 0.441041 0.937942 0.127696
506 1 0.80655 0.934456 0.120902
510 1 0.93154 0.937376 0.11416
261 1 0.129135 0.992874 0.13343
265 1 0.269905 0.985946 0.127032
269 1 0.380929 0.997777 0.131404
498 1 0.557635 0.946823 0.118462
502 1 0.684304 0.947698 0.124719
285 1 0.86703 0.99401 0.126396
263 1 0.206446 0.00558336 0.197232
271 1 0.441992 0.00202624 0.180668
275 1 0.552764 0.0169068 0.182192
279 1 0.683522 0.0140496 0.184546
283 1 0.807839 0.00722279 0.181051
260 1 0.0136226 0.0623518 0.19834
264 1 0.144898 0.0568087 0.191634
268 1 0.256724 0.0671359 0.191372
272 1 0.386828 0.0691113 0.177716
276 1 0.491453 0.0727143 0.186111
280 1 0.618517 0.0611465 0.18465
284 1 0.758831 0.0702744 0.193559
288 1 0.874328 0.0588512 0.176833
291 1 0.0636046 0.130247 0.192316
295 1 0.195605 0.127057 0.19119
299 1 0.317599 0.128399 0.20056
303 1 0.44056 0.133987 0.184702
307 1 0.555564 0.126306 0.189743
311 1 0.677017 0.117257 0.193169
315 1 0.82042 0.119968 0.18515
319 1 0.935213 0.124623 0.189036
296 1 0.135474 0.19115 0.193541
300 1 0.261384 0.185134 0.185039
304 1 0.382245 0.19157 0.199751
308 1 0.498354 0.19159 0.171892
312 1 0.627732 0.184709 0.191506
316 1 0.750631 0.169432 0.194865
320 1 0.870913 0.181485 0.190973
292 1 0.99474 0.17813 0.187455
323 1 0.0606678 0.251988 0.185348
327 1 0.192628 0.250676 0.189608
331 1 0.32336 0.255932 0.193406
335 1 0.443754 0.245246 0.198266
339 1 0.554126 0.250008 0.188536
343 1 0.684315 0.244778 0.182299
347 1 0.814911 0.242039 0.199972
351 1 0.930324 0.240166 0.195163
578 1 0.13679 0.306508 0.192874
585 1 0.249984 0.306026 0.185386
336 1 0.373723 0.32258 0.17902
340 1 0.498812 0.308859 0.189461
344 1 0.618094 0.312041 0.177404
348 1 0.757425 0.310795 0.182596
352 1 0.873453 0.305939 0.190262
324 1 0.999422 0.316805 0.19259
355 1 0.0628511 0.373681 0.190452
332 1 0.187131 0.37056 0.187819
363 1 0.306629 0.372906 0.183646
367 1 0.43579 0.376826 0.182782
338 1 0.547298 0.36981 0.195493
375 1 0.688748 0.354185 0.182714
379 1 0.815232 0.362148 0.188891
383 1 0.932043 0.366866 0.198384
645 1 0.118902 0.430273 0.178944
395 1 0.243718 0.434534 0.187816
368 1 0.37125 0.421701 0.184979
372 1 0.491573 0.441139 0.193762
376 1 0.612115 0.436 0.189721
380 1 0.74126 0.428623 0.193215
384 1 0.880629 0.433377 0.182638
609 1 0.991172 0.428886 0.18654
356 1 0.0484602 0.494784 0.196104
391 1 0.166006 0.495797 0.188668
650 1 0.308737 0.498798 0.192648
404 1 0.43231 0.49457 0.193586
407 1 0.6865 0.499898 0.188855
411 1 0.817034 0.493886 0.181317
415 1 0.946264 0.497116 0.18337
392 1 0.108066 0.554325 0.194138
396 1 0.244587 0.549463 0.201142
403 1 0.571939 0.508663 0.193218
416 1 0.882141 0.547695 0.179788
388 1 0.00603206 0.563997 0.189517
400 1 0.362311 0.564522 0.185606
660 1 0.503246 0.561856 0.184664
408 1 0.621073 0.579514 0.1878
412 1 0.750028 0.55576 0.191007
419 1 0.0562082 0.634817 0.183731
423 1 0.172388 0.612686 0.188195
427 1 0.29888 0.617437 0.179727
431 1 0.436766 0.622646 0.189136
436 1 0.555287 0.627698 0.183773
439 1 0.691034 0.616138 0.182712
443 1 0.826487 0.614977 0.190163
447 1 0.931689 0.61587 0.18148
424 1 0.119305 0.6863 0.190129
713 1 0.235644 0.670939 0.180668
432 1 0.37132 0.673487 0.177495
687 1 0.495053 0.694076 0.188238
440 1 0.625107 0.697985 0.189635
441 1 0.751285 0.696476 0.178446
448 1 0.892952 0.691124 0.180125
420 1 0.991619 0.69659 0.195816
451 1 0.0642185 0.747943 0.190862
455 1 0.179221 0.738657 0.183975
459 1 0.310027 0.742575 0.185668
463 1 0.429282 0.746946 0.183872
434 1 0.569287 0.762211 0.189129
471 1 0.69137 0.754286 0.191727
475 1 0.811553 0.749666 0.185252
479 1 0.940007 0.755776 0.189383
452 1 0.00530318 0.805007 0.199815
456 1 0.120509 0.814679 0.199691
457 1 0.244542 0.796081 0.192698
464 1 0.368898 0.803099 0.195721
468 1 0.507909 0.818362 0.189509
725 1 0.631695 0.825331 0.190221
444 1 0.753007 0.815593 0.192187
480 1 0.874059 0.812854 0.186759
483 1 0.0512149 0.879108 0.190158
487 1 0.189647 0.864803 0.199556
491 1 0.315753 0.881718 0.195111
495 1 0.439386 0.876171 0.203539
499 1 0.564729 0.881298 0.183334
503 1 0.690456 0.884478 0.184207
507 1 0.813144 0.876712 0.185032
511 1 0.937703 0.882671 0.182948
488 1 0.137113 0.94069 0.198768
492 1 0.253394 0.937717 0.194802
496 1 0.380909 0.943906 0.192849
500 1 0.499228 0.942802 0.197176
476 1 0.749063 0.938203 0.190682
512 1 0.869283 0.931653 0.179582
484 1 0.999643 0.939042 0.180778
259 1 0.0722945 0.99983 0.189733
267 1 0.315657 0.99744 0.194354
504 1 0.621901 0.94851 0.184586
287 1 0.937233 0.996581 0.176291
517 1 0.136003 0.00338658 0.255631
521 1 0.258785 0.00649304 0.260796
529 1 0.492044 0.0110522 0.246632
533 1 0.622053 0.00180413 0.253099
537 1 0.748898 0.0064125 0.246738
514 1 0.0800583 0.068672 0.245602
518 1 0.198063 0.0685024 0.25126
522 1 0.328046 0.0585381 0.247054
526 1 0.429454 0.0662171 0.255115
530 1 0.573699 0.0751636 0.265932
534 1 0.680718 0.0581393 0.250887
538 1 0.812677 0.06629 0.257375
542 1 0.936718 0.0608458 0.234762
545 1 0.00254951 0.129092 0.253395
549 1 0.127172 0.130281 0.250342
553 1 0.256444 0.127619 0.252388
557 1 0.379171 0.129947 0.256296
561 1 0.497066 0.12655 0.252663
565 1 0.624431 0.136227 0.260564
569 1 0.755789 0.127407 0.26625
573 1 0.887885 0.121977 0.257271
546 1 0.0647272 0.194431 0.241913
550 1 0.189562 0.194251 0.255458
554 1 0.321277 0.185754 0.259781
558 1 0.440694 0.192273 0.26424
562 1 0.553293 0.200233 0.251044
566 1 0.689923 0.183164 0.242835
570 1 0.818283 0.184864 0.260088
574 1 0.943662 0.185118 0.25571
321 1 0.00200335 0.249521 0.24795
581 1 0.127712 0.247802 0.254576
841 1 0.260529 0.239575 0.252729
589 1 0.377793 0.249837 0.256538
593 1 0.497764 0.258692 0.25547
597 1 0.623077 0.246102 0.237295
601 1 0.756899 0.240115 0.251015
605 1 0.877403 0.245145 0.262072
577 1 0.0674226 0.304022 0.247628
582 1 0.205678 0.302532 0.25293
586 1 0.313857 0.313632 0.254125
590 1 0.435867 0.322362 0.242221
594 1 0.561323 0.320165 0.253003
598 1 0.685314 0.306022 0.246819
602 1 0.812369 0.307234 0.249908
606 1 0.946242 0.309353 0.256664
639 1 0.000165488 0.372844 0.257511
360 1 0.120933 0.379704 0.25662
617 1 0.243133 0.380604 0.251081
621 1 0.371605 0.371224 0.255996
625 1 0.495539 0.374592 0.258292
629 1 0.628228 0.374581 0.245665
633 1 0.742881 0.36657 0.242946
637 1 0.866889 0.373994 0.24727
610 1 0.0556784 0.435219 0.253056
364 1 0.178955 0.432871 0.239794
618 1 0.300271 0.442483 0.249453
622 1 0.436246 0.431815 0.247297
371 1 0.548929 0.435604 0.251762
630 1 0.684465 0.43967 0.248902
634 1 0.805621 0.424164 0.248858
638 1 0.936847 0.440732 0.254913
387 1 0.116056 0.491845 0.251667
620 1 0.23769 0.490188 0.251939
655 1 0.369276 0.493329 0.249503
661 1 0.61303 0.489829 0.262176
665 1 0.751884 0.492711 0.249949
669 1 0.863363 0.480298 0.251688
641 1 0.995617 0.496053 0.255768
642 1 0.0573775 0.552659 0.263083
652 1 0.177198 0.555525 0.246742
626 1 0.487785 0.502105 0.253475
666 1 0.812679 0.552802 0.251065
651 1 0.307467 0.558027 0.252829
654 1 0.431267 0.561726 0.257733
658 1 0.568452 0.566946 0.254004
662 1 0.675066 0.560951 0.247775
670 1 0.942281 0.560617 0.244502
673 1 0.00849137 0.623981 0.253198
677 1 0.110191 0.621497 0.249206
681 1 0.235722 0.612671 0.250796
685 1 0.376458 0.625017 0.250971
657 1 0.499356 0.625871 0.25231
693 1 0.635714 0.631172 0.24754
697 1 0.750292 0.62527 0.242577
701 1 0.890843 0.633092 0.248604
674 1 0.0590491 0.687925 0.255576
678 1 0.183396 0.678167 0.241921
682 1 0.301036 0.674597 0.23681
686 1 0.432531 0.695398 0.247336
690 1 0.56518 0.675973 0.244591
694 1 0.701287 0.686049 0.244005
698 1 0.822437 0.671425 0.246989
702 1 0.942859 0.693971 0.265351
705 1 0.0013621 0.747719 0.259086
709 1 0.127732 0.743691 0.253472
460 1 0.242832 0.728034 0.245436
717 1 0.359481 0.731368 0.250075
721 1 0.509566 0.745425 0.254026
467 1 0.635178 0.75049 0.258309
729 1 0.760972 0.748428 0.247782
733 1 0.874906 0.748178 0.247155
706 1 0.0667635 0.802794 0.256458
710 1 0.18842 0.806454 0.251656
714 1 0.310594 0.812667 0.250544
718 1 0.42643 0.80745 0.249274
722 1 0.55602 0.813534 0.255665
726 1 0.68916 0.821461 0.248494
730 1 0.810472 0.811324 0.246005
734 1 0.943605 0.813524 0.256613
741 1 0.124484 0.87722 0.249097
745 1 0.258079 0.872636 0.251342
749 1 0.371668 0.872262 0.256898
753 1 0.506415 0.878817 0.253119
757 1 0.62861 0.88122 0.251077
761 1 0.749954 0.883775 0.252827
765 1 0.875664 0.873629 0.24707
737 1 0.998346 0.869295 0.253223
738 1 0.0646431 0.932658 0.257604
742 1 0.194528 0.935647 0.254566
746 1 0.318486 0.941703 0.255533
750 1 0.438068 0.940747 0.259232
754 1 0.557324 0.94103 0.252343
758 1 0.686599 0.93451 0.251278
762 1 0.811953 0.936565 0.250354
513 1 0.00295262 0.996149 0.238213
525 1 0.383008 0.997262 0.253434
541 1 0.876645 0.992062 0.244831
766 1 0.939533 0.945897 0.252619
515 1 0.0624213 0.000731129 0.30076
519 1 0.19464 0.00895742 0.309199
531 1 0.562302 0.00822084 0.318372
539 1 0.823289 0.00439162 0.310174
520 1 0.133116 0.0615325 0.317182
524 1 0.258041 0.067861 0.312504
528 1 0.375314 0.0725846 0.314498
532 1 0.499006 0.0589367 0.313122
536 1 0.647281 0.0664828 0.320283
540 1 0.743572 0.0581568 0.311188
544 1 0.879643 0.0629575 0.319448
516 1 0.996195 0.0574351 0.307651
547 1 0.0666235 0.12169 0.320265
551 1 0.196636 0.115628 0.326317
555 1 0.320232 0.129559 0.314335
559 1 0.445549 0.119719 0.31217
563 1 0.564299 0.143171 0.312752
567 1 0.684719 0.138509 0.31617
571 1 0.828904 0.128596 0.314916
575 1 0.950636 0.127318 0.315213
548 1 0.00708844 0.188592 0.30907
552 1 0.131973 0.189957 0.314097
556 1 0.252844 0.171307 0.323496
560 1 0.378062 0.193348 0.316673
564 1 0.502198 0.202551 0.319915
568 1 0.620165 0.199987 0.317773
572 1 0.75893 0.189939 0.321908
576 1 0.889415 0.190611 0.321907
579 1 0.0648614 0.250223 0.314277
583 1 0.186112 0.255336 0.317458
587 1 0.328222 0.261484 0.319859
591 1 0.427469 0.257742 0.325393
595 1 0.56068 0.257536 0.306982
599 1 0.684792 0.253438 0.313113
603 1 0.817865 0.245666 0.324889
607 1 0.945087 0.254272 0.313592
580 1 0.00803457 0.311429 0.315672
584 1 0.124622 0.306735 0.309177
588 1 0.258904 0.314327 0.31783
592 1 0.374673 0.327854 0.324183
596 1 0.496124 0.310595 0.325799
600 1 0.622844 0.308931 0.305096
604 1 0.757771 0.29847 0.312347
608 1 0.881946 0.313057 0.309376
611 1 0.0563213 0.377863 0.31469
613 1 0.192732 0.35784 0.310146
619 1 0.309839 0.374783 0.314765
623 1 0.440546 0.374118 0.328911
627 1 0.567726 0.372337 0.321249
631 1 0.680128 0.371188 0.311022
635 1 0.815824 0.368809 0.310029
865 1 0.934313 0.383224 0.314025
616 1 0.129221 0.435125 0.321063
614 1 0.244066 0.434248 0.316294
624 1 0.368519 0.433073 0.308687
913 1 0.500713 0.432436 0.315882
632 1 0.6183 0.43417 0.319985
636 1 0.74796 0.416172 0.308709
640 1 0.869934 0.43901 0.319593
612 1 0.995384 0.441172 0.320741
643 1 0.0566349 0.492897 0.311475
647 1 0.178665 0.494753 0.316417
874 1 0.298799 0.494253 0.30843
945 1 0.42652 0.491419 0.313903
882 1 0.550994 0.498951 0.314903
663 1 0.683187 0.489663 0.309613
667 1 0.8005 0.488316 0.31578
671 1 0.934855 0.496311 0.315807
646 1 0.124538 0.554096 0.308525
672 1 0.876062 0.548993 0.296079
649 1 0.239412 0.560824 0.314853
653 1 0.371776 0.569496 0.311475
659 1 0.503208 0.56706 0.3036
664 1 0.618307 0.564952 0.316737
668 1 0.736675 0.561464 0.302709
929 1 0.986858 0.572743 0.316206
648 1 0.062846 0.622586 0.317489
679 1 0.184223 0.618988 0.313215
683 1 0.295885 0.621688 0.302881
656 1 0.438833 0.625792 0.315008
691 1 0.557606 0.624969 0.317287
695 1 0.692679 0.63067 0.307265
699 1 0.803578 0.62157 0.309289
703 1 0.936826 0.634157 0.316221
676 1 0.00155073 0.683909 0.321955
680 1 0.124381 0.671387 0.31792
684 1 0.243818 0.683906 0.314857
688 1 0.354511 0.681168 0.312393
689 1 0.489797 0.691712 0.309435
696 1 0.621071 0.679507 0.314602
700 1 0.761569 0.689005 0.308885
704 1 0.873549 0.687334 0.307021
707 1 0.0631299 0.738053 0.31371
711 1 0.186219 0.751032 0.309161
715 1 0.294043 0.747976 0.308354
719 1 0.423585 0.763041 0.323505
723 1 0.564939 0.741546 0.31816
727 1 0.70347 0.744921 0.315139
731 1 0.811112 0.760382 0.309685
735 1 0.937026 0.75759 0.313379
708 1 0.00713786 0.81116 0.311929
712 1 0.130003 0.822077 0.316529
716 1 0.246953 0.816241 0.310996
720 1 0.361064 0.814429 0.316532
724 1 0.49206 0.807392 0.32012
728 1 0.634556 0.822922 0.310004
732 1 0.746098 0.818259 0.317289
736 1 0.871374 0.815915 0.302326
739 1 0.0655835 0.868143 0.306761
743 1 0.181597 0.879183 0.31878
747 1 0.313515 0.880741 0.310725
751 1 0.433452 0.868526 0.305299
755 1 0.573165 0.879642 0.308698
759 1 0.690844 0.882454 0.326893
763 1 0.812163 0.879075 0.307568
767 1 0.939102 0.886565 0.311708
744 1 0.125681 0.934796 0.312666
752 1 0.383057 0.931729 0.320193
756 1 0.496138 0.936851 0.310344
768 1 0.873174 0.937623 0.316269
748 1 0.246763 0.946879 0.313898
523 1 0.322554 0.99348 0.321071
527 1 0.428883 0.999751 0.319325
760 1 0.617326 0.945714 0.310065
535 1 0.683226 0.992731 0.306253
764 1 0.750266 0.945581 0.319287
543 1 0.930631 0.997979 0.31566
740 1 0.995332 0.951447 0.31262
774 1 0.195553 0.0500942 0.379235
781 1 0.380659 0.00497057 0.383961
789 1 0.635418 0.00415279 0.37819
793 1 0.762163 0.00740075 0.374202
797 1 0.876176 0.00100952 0.377325
801 1 0.000356813 0.110286 0.37171
770 1 0.0671393 0.0588118 0.373647
778 1 0.316851 0.056174 0.37938
782 1 0.439667 0.0651911 0.386128
786 1 0.561011 0.0747091 0.368553
794 1 0.825207 0.0623869 0.378294
798 1 0.937587 0.0573629 0.372703
805 1 0.118585 0.138264 0.379005
809 1 0.258261 0.118494 0.387012
813 1 0.373085 0.128754 0.377892
817 1 0.502225 0.135145 0.388047
821 1 0.62464 0.131739 0.370511
825 1 0.7639 0.121755 0.374961
829 1 0.880859 0.130435 0.378881
802 1 0.0512385 0.181965 0.37873
806 1 0.187139 0.188602 0.373652
810 1 0.313773 0.183839 0.37469
814 1 0.440262 0.18962 0.383053
818 1 0.556599 0.202184 0.378295
822 1 0.688697 0.188615 0.380456
826 1 0.819182 0.184513 0.377832
830 1 0.953007 0.189001 0.372933
833 1 0.00386331 0.253181 0.375364
837 1 0.121552 0.239022 0.379065
843 1 0.255041 0.248049 0.365974
849 1 0.491217 0.251285 0.385077
853 1 0.626307 0.265104 0.37122
857 1 0.751888 0.256789 0.376354
861 1 0.881001 0.245943 0.378708
840 1 0.0590641 0.313981 0.378091
838 1 0.17467 0.31747 0.374384
842 1 0.317369 0.322694 0.378727
846 1 0.43777 0.31077 0.386834
850 1 0.570798 0.320148 0.388596
854 1 0.691633 0.313792 0.376521
858 1 0.824982 0.312017 0.376264
862 1 0.931328 0.318572 0.376155
869 1 0.116677 0.375942 0.374352
873 1 0.247699 0.369288 0.376906
881 1 0.504218 0.371327 0.383725
885 1 0.635168 0.37757 0.383135
889 1 0.750962 0.369258 0.372497
834 1 0.996422 0.375737 0.376233
901 1 0.0644516 0.439032 0.383062
615 1 0.186382 0.429639 0.382444
875 1 0.31574 0.433272 0.378406
878 1 0.422479 0.434604 0.371793
883 1 0.556271 0.439115 0.375111
886 1 0.689256 0.439614 0.376345
890 1 0.806591 0.435926 0.373075
893 1 0.872213 0.389108 0.382818
905 1 0.245137 0.49245 0.374179
909 1 0.362346 0.497284 0.365459
917 1 0.620805 0.495187 0.368909
894 1 0.932137 0.451116 0.37787
870 1 0.117851 0.507466 0.375502
910 1 0.42802 0.552444 0.378526
628 1 0.489574 0.503694 0.379072
921 1 0.740595 0.504016 0.370994
925 1 0.861892 0.505115 0.371146
897 1 0.996424 0.509269 0.377009
900 1 0.0585327 0.562124 0.377959
902 1 0.191011 0.556221 0.384181
906 1 0.301023 0.559745 0.369615
914 1 0.56191 0.562327 0.376048
918 1 0.697115 0.568003 0.37884
922 1 0.806974 0.562356 0.371295
644 1 0.936706 0.564055 0.378165
930 1 0.131325 0.621273 0.385489
937 1 0.244411 0.618639 0.369916
941 1 0.374868 0.619392 0.377088
692 1 0.49752 0.614361 0.372482
949 1 0.639855 0.632702 0.380007
953 1 0.761523 0.636735 0.376704
957 1 0.871935 0.616432 0.380967
675 1 0.996265 0.625171 0.386264
933 1 0.0622098 0.674516 0.37381
934 1 0.194425 0.686117 0.386882
938 1 0.295317 0.683105 0.377684
942 1 0.428972 0.683635 0.370723
946 1 0.57093 0.677823 0.379938
950 1 0.700234 0.686992 0.373309
954 1 0.829783 0.685369 0.377235
958 1 0.93686 0.699871 0.373193
963 1 0.000899134 0.74936 0.369883
965 1 0.141456 0.745006 0.375274
969 1 0.235068 0.758481 0.376214
973 1 0.359989 0.734218 0.372408
977 1 0.503457 0.743025 0.376541
981 1 0.631379 0.754308 0.357605
985 1 0.762054 0.75544 0.385572
989 1 0.876504 0.755506 0.367266
961 1 0.0704348 0.804942 0.370483
966 1 0.185614 0.818781 0.371303
970 1 0.309552 0.809481 0.374981
974 1 0.437765 0.808785 0.383268
978 1 0.56302 0.801018 0.375742
982 1 0.693255 0.816084 0.381748
986 1 0.818135 0.815546 0.366301
990 1 0.941813 0.818289 0.372511
962 1 0.0127669 0.86967 0.373475
997 1 0.115409 0.878293 0.375176
1001 1 0.250303 0.877646 0.362574
1005 1 0.376248 0.87767 0.377418
1009 1 0.490564 0.872991 0.374766
1013 1 0.620841 0.867285 0.380092
1017 1 0.75562 0.882137 0.376298
1021 1 0.879868 0.875297 0.36717
1002 1 0.311953 0.93666 0.383203
1006 1 0.439557 0.943639 0.372956
1010 1 0.561119 0.931663 0.377368
1014 1 0.694925 0.941066 0.380202
1018 1 0.811983 0.935525 0.369111
1022 1 0.946151 0.940511 0.37112
994 1 0.0530563 0.944587 0.366645
773 1 0.120316 0.996682 0.364441
998 1 0.190099 0.951437 0.371367
777 1 0.255797 0.998166 0.378255
785 1 0.510733 0.99151 0.373986
769 1 0.997604 0.999877 0.374263
775 1 0.16863 0.00317425 0.440713
783 1 0.442273 0.00868548 0.440808
787 1 0.569622 0.00715033 0.424449
795 1 0.817649 0.00672501 0.432644
772 1 0.000806006 0.0693185 0.439834
776 1 0.129725 0.0829675 0.439201
780 1 0.25568 0.0577986 0.438787
788 1 0.509005 0.0647763 0.428249
790 1 0.693517 0.0668386 0.393214
796 1 0.760245 0.0666749 0.443826
800 1 0.878166 0.0700705 0.441268
803 1 0.0619686 0.123274 0.437915
807 1 0.192679 0.140251 0.434589
811 1 0.316846 0.120028 0.436892
819 1 0.576349 0.125207 0.434089
823 1 0.693923 0.136715 0.443539
827 1 0.818845 0.129328 0.433654
831 1 0.940346 0.130801 0.434583
812 1 0.255539 0.18506 0.430879
828 1 0.757396 0.187974 0.427454
832 1 0.882508 0.191356 0.441609
1089 1 0.0588904 0.24804 0.437747
839 1 0.193087 0.249948 0.425129
1101 1 0.308919 0.250683 0.430069
845 1 0.377178 0.248449 0.389945
851 1 0.581528 0.259013 0.438437
855 1 0.68516 0.250799 0.432271
859 1 0.811573 0.253516 0.437949
868 1 0.945119 0.247046 0.43427
1093 1 0.116525 0.300713 0.434126
844 1 0.25451 0.307727 0.44439
852 1 0.502179 0.311294 0.441801
856 1 0.640775 0.322592 0.436977
860 1 0.759666 0.323238 0.436002
895 1 0.882126 0.315049 0.440849
836 1 0.993115 0.315526 0.434062
866 1 0.0611611 0.382815 0.440856
871 1 0.185158 0.371177 0.441322
877 1 0.373882 0.373923 0.394585
879 1 0.447183 0.374551 0.440253
891 1 0.815113 0.382911 0.43757
1150 1 0.937851 0.385234 0.431455
876 1 0.260356 0.438321 0.439779
884 1 0.504648 0.432858 0.437059
887 1 0.688147 0.390268 0.442087
892 1 0.748269 0.442872 0.440161
896 1 0.880345 0.443371 0.439919
1154 1 0.060135 0.499254 0.438005
872 1 0.128981 0.451178 0.436819
903 1 0.196174 0.486689 0.443142
880 1 0.368102 0.448617 0.442208
911 1 0.432708 0.498148 0.440634
888 1 0.628677 0.444834 0.433148
867 1 0.990673 0.446052 0.434271
907 1 0.31205 0.503874 0.440287
916 1 0.492438 0.551782 0.44079
915 1 0.558257 0.503508 0.429491
919 1 0.689609 0.500567 0.433108
923 1 0.811787 0.500868 0.437822