ITEM: TIMESTEP
100000
ITEM: NUMBER OF ATOMS
2048
ITEM: BOX BOUNDS pp pp pp
-6.3496042078727974e+00 6.3496042078727974e+00
-6.3496042078727974e+00 6.3496042078727974e+00
-6.3496042078727974e+00 6.3496042078727974e+00
ITEM: ATOMS id type xs ys zs
282 1 0.0688444 0.00496153 0.0144123
1170 1 0.301718 0.00550388 0.0502235
635 1 0.681759 0.0475828 0.0164979
114 1 0.831686 0.0468076 0.0400686
1642 1 0.0297169 0.0654129 0.0269409
1241 1 0.141749 0.0666601 0.0440458
1904 1 0.221882 0.0990567 0.0252935
257 1 0.297465 0.0838479 0.0533905
1038 1 0.389608 0.096747 0.0159828
945 1 0.48688 0.0529999 0.0288099
929 1 0.542281 0.104437 0.0165853
1984 1 0.754518 0.0799523 0.0427215
1342 1 0.949491 0.0883517 0.0101583
1991 1 0.0512037 0.139108 0.00827883
1265 1 0.336276 0.148394 0.0376023
1187 1 0.462662 0.123606 0.0140693
432 1 0.692024 0.117763 0.0504802
680 1 0.810319 0.152466 0.00635452
2033 1 0.896915 0.142945 0.0138248
306 1 0.275997 0.204219 0.0397457
696 1 0.481961 0.192854 0.0158574
581 1 0.71955 0.185503 0.00209339
561 1 0.980755 0.159748 0.0188412
1332 1 0.364465 0.232623 0.0538947
1158 1 0.522962 0.249578 0.0458427
1954 1 0.605975 0.220439 0.0456105
449 1 0.671966 0.258261 0.0241076
1723 1 0.793155 0.256347 0.021382
1067 1 0.944663 0.220818 0.043053
732 1 0.0838255 0.266165 0.0420523
1380 1 0.162909 0.284969 0.0450484
645 1 0.294203 0.296766 0.0188036
646 1 0.888346 0.275038 0.0251097
839 1 0.0142439 0.358777 0.0467507
1927 1 0.116734 0.335473 0.00557151
1513 1 0.514484 0.350515 0.0445981
1924 1 0.722484 0.317391 0.00283277
1502 1 0.928578 0.335602 0.0547973
154 1 0.0838268 0.404162 0.0368245
1317 1 0.177199 0.412882 0.0169265
56 1 0.311146 0.380868 0.0480626
766 1 0.37687 0.398464 0.0135202
515 1 0.868225 0.371517 0.0177133
1960 1 0.952643 0.407594 0.0325467
605 1 0.506636 0.433617 0.000340864
784 1 0.697962 0.424096 0.0515784
757 1 0.778621 0.429582 0.0223283
78 1 0.887902 0.447877 0.0390225
1520 1 0.0715361 0.477106 0.0342148
1335 1 0.305221 0.520126 0.036182
754 1 0.391765 0.4922 0.0177867
659 1 0.475953 0.511429 0.0423478
379 1 0.547596 0.521441 0.0189598
54 1 0.649605 0.498259 0.037767
1031 1 0.758985 0.523367 0.0192191
566 1 0.835307 0.507482 0.0411266
1415 1 0.974175 0.490196 0.0331203
1439 1 0.0830732 0.57705 0.0454368
4 1 0.16065 0.606814 0.0339125
1832 1 0.234027 0.614931 0.0137838
1276 1 0.363397 0.596251 0.0173821
789 1 0.498296 0.585375 0.043924
1809 1 0.575865 0.613872 0.0184431
1941 1 0.703733 0.579934 0.0238988
291 1 0.823265 0.581943 0.0226768
1581 1 0.902227 0.597276 0.0357901
1163 1 0.09152 0.643109 0.00104758
48 1 0.308719 0.64771 0.0237521
1287 1 0.378879 0.678744 0.0165433
563 1 0.430003 0.631766 0.0528097
974 1 0.511876 0.657989 0.0327368
1770 1 0.649239 0.632327 0.043505
68 1 0.0749726 0.72211 0.0443437
1645 1 0.212676 0.688992 0.0466816
1009 1 0.694067 0.711493 0.0211278
836 1 0.820062 0.72714 0.0171168
819 1 0.907917 0.71659 0.0200782
779 1 0.98174 0.717818 0.00647975
201 1 0.25088 0.768139 0.0485706
434 1 0.402007 0.755982 0.0289913
572 1 0.488429 0.761062 0.0164142
18 1 0.623044 0.754875 0.0415872
799 1 0.107974 0.802293 0.0251748
1697 1 0.177026 0.822957 0.0522678
1504 1 0.245128 0.840211 0.016646
1592 1 0.319918 0.802531 0.0453402
318 1 0.43243 0.830913 0.0138922
69 1 0.676407 0.836624 0.0230074
1990 1 0.760773 0.80296 0.0170611
810 1 0.836077 0.824963 0.0212747
1604 1 0.994147 0.825215 0.0197534
840 1 0.0663841 0.870335 0.0110693
479 1 0.358113 0.867116 0.0228499
132 1 0.578449 0.888617 0.0114816
694 1 0.908556 0.849237 0.0280424
1926 1 0.111288 0.941991 0.0258822
896 1 0.196749 0.901551 0.0433408
753 1 0.276833 0.935735 0.0271947
888 1 0.360897 0.943626 0.0334856
1671 1 0.428652 0.912669 0.0384635
176 1 0.710813 0.911131 0.0365448
1428 1 0.785449 0.935369 0.0367044
688 1 0.87048 0.916015 0.0236822
284 1 0.968383 0.905851 0.0242343
530 1 0.185359 0.979357 0.0448987
1867 1 0.42037 0.994608 0.00639942
2002 1 0.625142 0.993912 0.0307974
115 1 0.899 0.996162 0.0246359
1964 1 0.98356 0.997259 0.0135937
977 1 0.0442947 0.0201585 0.0922004
1420 1 0.235882 0.0348665 0.0691258
1157 1 0.374265 0.0208752 0.0623204
494 1 0.441563 0.0359056 0.0875274
110 1 0.763718 0.0183256 0.0892006
638 1 0.914761 0.0489494 0.0887904
1299 1 0.0871473 0.0891884 0.0909957
601 1 0.370466 0.0934053 0.0895106
1539 1 0.552135 0.0536876 0.072941
1703 1 0.620317 0.0739786 0.0661521
1298 1 0.0340408 0.147167 0.0878967
1690 1 0.128982 0.154782 0.0564625
1724 1 0.194916 0.116117 0.0946541
296 1 0.479525 0.10746 0.0884313
809 1 0.622147 0.148597 0.0580007
1147 1 0.854281 0.106062 0.0831974
761 1 0.935263 0.13981 0.0907772
858 1 0.185618 0.208547 0.065806
1212 1 0.255045 0.16089 0.104296
1973 1 0.343533 0.177527 0.10863
453 1 0.411024 0.160681 0.0593141
321 1 0.541987 0.175281 0.0992817
1262 1 0.709027 0.209069 0.0999856
1709 1 0.776043 0.168914 0.0738648
1963 1 0.842917 0.20709 0.0646183
1192 1 0.0201432 0.223945 0.0804584
1574 1 0.116907 0.229649 0.0991359
1041 1 0.302907 0.248138 0.0986853
2047 1 0.438777 0.243402 0.0682552
288 1 0.906227 0.256688 0.099957
73 1 0.230638 0.275227 0.0801703
1540 1 0.354649 0.30421 0.0876835
1234 1 0.602385 0.307488 0.0579877
979 1 0.752514 0.288178 0.0771427
1533 1 0.831003 0.301942 0.0665508
1656 1 0.986542 0.293301 0.0863629
878 1 0.0781149 0.333559 0.0760167
1480 1 0.150999 0.36351 0.066754
1046 1 0.448028 0.323442 0.0647965
655 1 0.675943 0.349563 0.0593826
366 1 0.743988 0.364237 0.0838397
802 1 0.231984 0.376857 0.0606692
1485 1 0.445423 0.40002 0.079909
1944 1 0.526797 0.412393 0.088085
1725 1 0.613391 0.404659 0.0803482
1012 1 0.828089 0.398881 0.0868396
1956 1 0.0235377 0.436971 0.0782033
400 1 0.130924 0.436495 0.105696
1988 1 0.191369 0.470438 0.0642905
202 1 0.262128 0.442844 0.0681889
897 1 0.349114 0.469352 0.0748544
1244 1 0.853755 0.470041 0.108661
579 1 0.933611 0.439183 0.100585
1257 1 0.139637 0.525386 0.0887186
1431 1 0.59504 0.479207 0.0880873
1230 1 0.00906656 0.531412 0.0851731
182 1 0.223443 0.545285 0.0745737
1594 1 0.375847 0.549208 0.0907924
1605 1 0.554906 0.556552 0.0845747
1340 1 0.627036 0.557803 0.0942913
1702 1 0.729379 0.53419 0.100578
1946 1 0.896576 0.530457 0.0756271
882 1 0.21491 0.620182 0.0994134
1895 1 0.287213 0.595779 0.0823195
1310 1 0.699687 0.60953 0.0982766
1896 1 0.77199 0.62332 0.0627572
661 1 0.842069 0.605327 0.0930702
925 1 0.922297 0.6017 0.108484
876 1 0.983229 0.607319 0.0584162
1644 1 0.047788 0.644723 0.0647286
1451 1 0.355215 0.63677 0.0851894
1385 1 0.883636 0.668519 0.0716655
1455 1 0.956862 0.683841 0.0781121
90 1 0.029157 0.719494 0.108079
1418 1 0.292701 0.688038 0.0898176
1458 1 0.354639 0.730703 0.0898133
1070 1 0.450784 0.70188 0.0580538
512 1 0.526645 0.725521 0.0737975
1243 1 0.589258 0.686758 0.0595806
588 1 0.659201 0.704354 0.0959409
112 1 0.76272 0.70889 0.0631561
825 1 0.0392544 0.786676 0.075172
2038 1 0.159911 0.746741 0.0597135
1301 1 0.453306 0.780953 0.0837559
1172 1 0.859705 0.754161 0.0731657
1923 1 0.934933 0.777257 0.0600555
837 1 0.104304 0.81484 0.102649
712 1 0.379555 0.806037 0.0869402
644 1 0.546412 0.806692 0.0669322
1042 1 0.619325 0.835452 0.0730541
612 1 0.693697 0.810639 0.109943
285 1 0.0507223 0.884646 0.110324
1341 1 0.124147 0.875254 0.058643
2023 1 0.278449 0.876061 0.0833733
396 1 0.43706 0.852348 0.0978151
1796 1 0.508642 0.873549 0.0726492
458 1 0.572587 0.893188 0.105747
1081 1 0.74908 0.850175 0.082095
554 1 0.821784 0.886983 0.0799036
1088 1 0.962247 0.881251 0.0975555
1130 1 0.0265528 0.940821 0.0650424
593 1 0.145927 0.938372 0.098885
422 1 0.631914 0.917769 0.0625969
1448 1 0.755223 0.937797 0.106404
619 1 0.886959 0.928492 0.0981047
2018 1 0.242548 0.95966 0.0917441
2001 1 0.487057 0.975286 0.06537
1937 1 0.557896 0.972265 0.0800504
1858 1 0.627083 0.996591 0.10901
793 1 0.692067 0.984795 0.0691208
1488 1 0.841789 0.993473 0.0972795
1608 1 0.9539 0.971423 0.0774331
1905 1 0.13339 0.0144765 0.116033
461 1 0.203748 0.0121162 0.143109
1892 1 0.291659 0.0428213 0.120926
1661 1 0.394809 0.0376436 0.153959
524 1 0.558819 0.0101796 0.145699
398 1 0.992884 0.00647136 0.155447
418 1 0.0559312 0.0747176 0.157827
49 1 0.487229 0.0527002 0.147255
1446 1 0.687338 0.0618827 0.112284
1627 1 0.784769 0.0843909 0.122931
695 1 0.856328 0.0603734 0.153216
953 1 0.98172 0.0782349 0.115741
280 1 0.297979 0.115286 0.153341
2031 1 0.417049 0.133657 0.140048
1398 1 0.506262 0.12964 0.155684
1758 1 0.578916 0.110909 0.121716
718 1 0.654554 0.137132 0.128649
513 1 0.743442 0.152768 0.146906
538 1 0.817629 0.149573 0.143615
492 1 0.0779021 0.178039 0.153169
1868 1 0.15802 0.169531 0.131681
1112 1 0.46368 0.188878 0.115296
963 1 0.614122 0.203429 0.124326
1673 1 0.882243 0.186065 0.131116
1810 1 0.225064 0.211412 0.154424
1959 1 0.387887 0.238217 0.130204
1193 1 0.794475 0.220754 0.128003
1634 1 0.980145 0.221647 0.141144
531 1 0.0470384 0.270201 0.138874
1429 1 0.165146 0.285492 0.122578
1584 1 0.453753 0.270541 0.151558
951 1 0.528079 0.279986 0.11548
976 1 0.587173 0.267584 0.160502
286 1 0.661034 0.282326 0.112309
157 1 0.731779 0.306667 0.154072
1912 1 0.810491 0.298372 0.152196
394 1 0.941681 0.294104 0.152873
1640 1 0.0187841 0.351117 0.120885
440 1 0.0903409 0.339004 0.151728
1612 1 0.213158 0.343357 0.124124
1029 1 0.296083 0.325132 0.148581
1173 1 0.407417 0.349319 0.126515
193 1 0.56299 0.350691 0.118236
225 1 0.67614 0.362924 0.143354
592 1 0.870159 0.35022 0.136584
1149 1 0.0646885 0.407551 0.135413
1898 1 0.200077 0.420526 0.146423
1654 1 0.339081 0.384464 0.119578
2009 1 0.480145 0.37209 0.147856
113 1 0.774346 0.375789 0.152197
702 1 0.9461 0.376687 0.145862
831 1 0.316272 0.45351 0.143069
674 1 0.395265 0.429489 0.14884
120 1 0.627519 0.423596 0.162024
576 1 0.683466 0.460947 0.117081
606 1 0.993026 0.439044 0.162004
1303 1 0.0738803 0.485695 0.112849
1436 1 0.222101 0.496286 0.134634
1665 1 0.404251 0.513257 0.156546
424 1 0.467332 0.476677 0.112807
1613 1 0.527972 0.496908 0.158346
890 1 0.775178 0.478124 0.117985
483 1 0.948652 0.505424 0.123071
1517 1 0.311222 0.529256 0.12976
1632 1 0.464168 0.561643 0.11335
175 1 0.558047 0.571064 0.163464
1630 1 0.796477 0.549412 0.142305
944 1 0.870185 0.534891 0.149547
450 1 0.0572014 0.58531 0.121976
1728 1 0.138128 0.598928 0.116879
223 1 0.326034 0.605871 0.147437
455 1 0.403487 0.590896 0.150267
909 1 0.521111 0.630996 0.127692
99 1 0.595523 0.619707 0.118545
1995 1 0.985824 0.589535 0.144704
1866 1 0.0774982 0.657027 0.137559
1542 1 0.160282 0.675001 0.135879
746 1 0.261861 0.655277 0.153757
2022 1 0.447905 0.658914 0.128286
1227 1 0.744971 0.661857 0.133511
768 1 0.878091 0.666896 0.151709
1568 1 0.105996 0.733452 0.13007
192 1 0.228396 0.728861 0.123614
984 1 0.593298 0.703444 0.143826
916 1 0.816382 0.706677 0.117672
1014 1 0.0379177 0.779373 0.152827
704 1 0.294057 0.777239 0.114362
1651 1 0.392853 0.747002 0.151315
342 1 0.464049 0.776053 0.160949
817 1 0.54014 0.763268 0.136391
1069 1 0.623374 0.784043 0.12492
266 1 0.769579 0.764706 0.147602
729 1 0.915343 0.742173 0.128914
1365 1 0.224626 0.809916 0.115762
1696 1 0.390957 0.833811 0.159142
620 1 0.82204 0.813067 0.111872
1596 1 0.955311 0.813508 0.125993
950 1 0.186051 0.879688 0.134546
241 1 0.298534 0.844543 0.162449
1145 1 0.349891 0.890065 0.116288
1554 1 0.519072 0.844954 0.154625
476 1 0.76946 0.848666 0.163078
361 1 0.887986 0.851564 0.113343
2037 1 0.461372 0.910856 0.134854
665 1 0.523295 0.93644 0.160133
1339 1 0.607566 0.9392 0.153896
1078 1 0.68084 0.902725 0.13516
488 1 0.819118 0.928237 0.150119
1823 1 0.998916 0.934607 0.137843
999 1 0.0752273 0.951541 0.126797
1344 1 0.317479 0.964087 0.129248
3 1 0.392608 0.967135 0.117596
343 1 0.702164 0.980194 0.147691
782 1 0.786147 0.99769 0.165626
1378 1 0.892059 0.98674 0.158088
508 1 0.623544 0.00901192 0.203041
733 1 0.86259 0.0246159 0.219301
941 1 0.160191 0.0651289 0.183004
74 1 0.237639 0.0584548 0.190932
1583 1 0.36935 0.0952391 0.199642
1401 1 0.558756 0.0862201 0.193812
1564 1 0.646347 0.0842994 0.188144
740 1 0.727475 0.0604074 0.182197
79 1 0.801284 0.0779459 0.20131
82 1 0.951166 0.0552895 0.205503
1179 1 0.123632 0.13331 0.199439
1277 1 0.223127 0.135132 0.170265
196 1 0.681516 0.153537 0.198076
1860 1 0.918592 0.116889 0.176266
1460 1 0.993257 0.141188 0.167025
325 1 0.256822 0.180447 0.217639
1771 1 0.355252 0.190094 0.19985
1110 1 0.444197 0.19681 0.193013
1617 1 0.569827 0.170063 0.187873
1555 1 0.796414 0.196753 0.208928
344 1 0.862678 0.159181 0.21052
721 1 0.946458 0.194843 0.204498
1444 1 0.0230403 0.223578 0.201115
500 1 0.295611 0.237779 0.178298
1215 1 0.515573 0.230384 0.200545
313 1 0.645174 0.225182 0.199076
1865 1 0.733432 0.227675 0.184647
1120 1 0.860107 0.24522 0.180145
1787 1 0.110071 0.273248 0.174563
1953 1 0.234763 0.284111 0.188686
1929 1 0.375562 0.290769 0.179421
617 1 0.999426 0.304887 0.200957
477 1 0.16794 0.345281 0.191396
1827 1 0.602347 0.346927 0.184817
214 1 0.739022 0.362325 0.217646
1136 1 0.8478 0.334111 0.212889
1027 1 0.0374196 0.37125 0.217118
130 1 0.118183 0.404114 0.183617
2000 1 0.258038 0.379538 0.17856
200 1 0.344683 0.398098 0.200748
1210 1 0.836326 0.414816 0.179382
1797 1 0.946551 0.400659 0.215453
1379 1 0.0725219 0.468672 0.189629
151 1 0.149059 0.472916 0.172365
1148 1 0.258123 0.457905 0.204206
519 1 0.467538 0.441897 0.17879
143 1 0.548331 0.422253 0.173545
272 1 0.71266 0.423215 0.174847
1678 1 0.781249 0.47066 0.202934
682 1 0.899328 0.450185 0.167656
833 1 0.353588 0.485787 0.211303
1377 1 0.606285 0.495391 0.173632
1537 1 0.69783 0.510318 0.174528
80 1 0.848825 0.509236 0.219116
1394 1 0.922401 0.511537 0.204326
301 1 0.0253123 0.533309 0.18598
2006 1 0.109722 0.53481 0.185815
1410 1 0.186112 0.545161 0.216425
1908 1 0.335007 0.563626 0.216999
834 1 0.482493 0.562793 0.189735
998 1 0.633771 0.565751 0.16827
1423 1 0.777253 0.55735 0.219543
1863 1 0.0556681 0.594147 0.209821
5 1 0.175119 0.618541 0.189377
1479 1 0.258433 0.57973 0.167361
1033 1 0.716321 0.588108 0.168285
631 1 0.881371 0.602572 0.198216
814 1 0.013245 0.659993 0.211821
1146 1 0.117431 0.67189 0.204825
921 1 0.33726 0.647747 0.220825
1056 1 0.396333 0.678176 0.184309
1199 1 0.467402 0.639515 0.200735
1190 1 0.593372 0.633862 0.20499
1245 1 0.659901 0.656935 0.176826
1573 1 0.755222 0.631895 0.215203
1768 1 0.818387 0.675563 0.201007
623 1 0.95166 0.660834 0.168121
1976 1 0.0586413 0.718034 0.186115
1971 1 0.189426 0.735064 0.185668
1293 1 0.308604 0.718764 0.171409
2026 1 0.455585 0.714288 0.219359
851 1 0.51858 0.693449 0.177901
1529 1 0.664322 0.735535 0.169128
102 1 0.727364 0.702273 0.20858
76 1 0.893237 0.719114 0.209841
937 1 0.251028 0.777832 0.178606
1311 1 0.327958 0.789084 0.203394
1981 1 0.586717 0.755686 0.198924
1588 1 0.847739 0.759572 0.166871
751 1 0.981395 0.736969 0.198306
19 1 0.128393 0.798985 0.173164
83 1 0.195326 0.828098 0.193273
725 1 0.711662 0.792886 0.190599
360 1 0.897398 0.818124 0.17955
1065 1 0.00141961 0.858066 0.170431
23 1 0.12913 0.884849 0.184382
1500 1 0.589426 0.884149 0.21183
1720 1 0.655984 0.848502 0.188447
327 1 0.717274 0.880343 0.214015
1979 1 0.835131 0.875921 0.221313
887 1 0.932393 0.889097 0.209878
1557 1 0.192238 0.933509 0.193191
268 1 0.268061 0.917166 0.169363
1616 1 0.33778 0.930626 0.193256
1759 1 0.658748 0.93329 0.209212
337 1 0.773452 0.935308 0.205718
478 1 0.876624 0.941039 0.215035
206 1 0.051703 0.995416 0.205098
971 1 0.131246 0.973414 0.182973
1116 1 0.277661 0.993539 0.190057
1685 1 0.453584 0.993234 0.188992
1491 1 0.709728 0.98986 0.219069
1351 1 0.186874 0.00836491 0.224983
866 1 0.317757 0.0513595 0.232069
1888 1 0.530656 0.0151179 0.22338
407 1 0.0215667 0.0628786 0.240338
1524 1 0.0974062 0.0540703 0.231851
1957 1 0.167018 0.0778432 0.26876
100 1 0.42806 0.0565074 0.227818
468 1 0.506182 0.0802686 0.256429
1945 1 0.606749 0.0702404 0.25874
1911 1 0.686776 0.0630143 0.248671
473 1 0.894563 0.0957445 0.251113
1624 1 0.249628 0.111071 0.249368
289 1 0.420152 0.134015 0.239508
1268 1 0.570562 0.138725 0.258423
706 1 0.746246 0.112445 0.239287
794 1 0.803478 0.150841 0.274084
1980 1 0.972584 0.134 0.252603
441 1 0.0858788 0.193023 0.233099
502 1 0.163448 0.200088 0.226066
1659 1 0.326704 0.162806 0.276348
1483 1 0.497508 0.172209 0.247527
46 1 0.709251 0.201422 0.251962
642 1 0.908811 0.169826 0.271947
628 1 0.340136 0.251612 0.242906
1020 1 0.424118 0.236626 0.25764
416 1 0.804502 0.238033 0.273996
1242 1 0.910075 0.251686 0.23893
1154 1 0.0985244 0.265919 0.26668
167 1 0.184372 0.284183 0.242858
445 1 0.437463 0.309068 0.226402
1356 1 0.513973 0.295142 0.248978
854 1 0.589289 0.26877 0.238401
1131 1 0.669973 0.296643 0.225182
594 1 0.779323 0.293114 0.225359
189 1 0.970025 0.287329 0.271478
1655 1 0.116277 0.339264 0.249065
1397 1 0.253533 0.328949 0.243719
369 1 0.329811 0.328343 0.227229
1358 1 0.571372 0.34242 0.263932
920 1 0.919212 0.324984 0.227907
8 1 0.979008 0.366858 0.272552
1072 1 0.199387 0.388974 0.269984
345 1 0.416801 0.390069 0.226012
1323 1 0.500153 0.380574 0.223294
184 1 0.651784 0.383549 0.234418
1687 1 0.842253 0.389397 0.260343
227 1 0.0207674 0.443357 0.259939
70 1 0.179803 0.469101 0.244056
1807 1 0.301622 0.473373 0.271474
517 1 0.432457 0.472519 0.24061
1453 1 0.511368 0.455278 0.251552
846 1 0.58939 0.469855 0.24577
2036 1 0.662048 0.463413 0.223583
1711 1 0.719762 0.423774 0.258108
109 1 0.817357 0.469828 0.277312
1297 1 0.889541 0.449882 0.257993
1848 1 0.0395622 0.522497 0.264035
1260 1 0.126846 0.524752 0.263339
1082 1 0.722218 0.510742 0.247748
1142 1 0.960975 0.489263 0.268623
377 1 0.256585 0.531712 0.245641
1951 1 0.383673 0.527957 0.26973
567 1 0.543687 0.534617 0.236751
1408 1 0.629446 0.54846 0.245497
1425 1 0.899464 0.549568 0.269876
140 1 0.977609 0.567994 0.235112
940 1 0.166537 0.593701 0.274382
1290 1 0.255754 0.611392 0.241022
1526 1 0.420011 0.587243 0.228871
1006 1 0.520473 0.613273 0.243033
409 1 0.695105 0.601353 0.254169
822 1 0.821078 0.610148 0.255262
443 1 0.0825542 0.678843 0.274009
403 1 0.160339 0.67282 0.276642
690 1 0.409018 0.669082 0.263272
1101 1 0.651397 0.665442 0.249936
777 1 0.881146 0.653971 0.262733
797 1 0.233262 0.69255 0.236547
691 1 0.310241 0.705137 0.269797
1705 1 0.373083 0.732321 0.238702
1919 1 0.548232 0.690993 0.26388
1684 1 0.787153 0.70516 0.263607
1691 1 0.952313 0.686642 0.247586
2041 1 0.0331709 0.762166 0.2507
1061 1 0.111872 0.747996 0.237902
1647 1 0.184612 0.74854 0.26331
1856 1 0.268889 0.779992 0.262399
1695 1 0.42301 0.786391 0.228595
609 1 0.512871 0.760626 0.252016
1109 1 0.661599 0.75614 0.241079
1181 1 0.858237 0.777774 0.262935
1195 1 0.0605153 0.831185 0.224439
1992 1 0.133905 0.830202 0.247446
311 1 0.554026 0.816358 0.230041
352 1 0.623444 0.824309 0.273517
466 1 0.709937 0.824576 0.264232
917 1 0.793033 0.810526 0.224767
1600 1 0.91137 0.832857 0.258896
1834 1 0.974101 0.805777 0.227372
1492 1 0.286021 0.856924 0.257678
170 1 0.360558 0.853246 0.229704
281 1 0.454341 0.862601 0.260745
1348 1 0.0489785 0.910195 0.226175
886 1 0.179927 0.896074 0.263047
7 1 0.254643 0.937533 0.257373
919 1 0.400516 0.917087 0.230007
555 1 0.452758 0.944867 0.27705
44 1 0.50929 0.909295 0.232003
1890 1 0.117677 0.985549 0.256651
1940 1 0.380995 0.993212 0.231893
1969 1 0.572461 0.952288 0.244354
1267 1 0.809602 0.979712 0.259296
231 1 0.958416 0.977491 0.231415
1677 1 0.244982 0.0440738 0.294582
1017 1 0.312195 0.0134683 0.303926
1570 1 0.420198 0.0132208 0.29801
32 1 0.498922 0.0118689 0.290569
874 1 0.564087 0.0425333 0.319219
146 1 0.757548 0.0279713 0.28248
1590 1 0.0956891 0.0896866 0.300241
503 1 0.295625 0.104441 0.323954
763 1 0.365478 0.0785729 0.29254
2012 1 0.635077 0.0978241 0.321741
436 1 0.837503 0.0701966 0.298202
1467 1 0.95761 0.0563229 0.284365
302 1 0.0332623 0.157667 0.299302
1218 1 0.162001 0.154741 0.301267
1754 1 0.449687 0.106273 0.305801
177 1 0.723418 0.125205 0.312977
187 1 0.884345 0.124338 0.33262
1565 1 0.103081 0.203797 0.318327
671 1 0.244487 0.180215 0.298482
542 1 0.412062 0.17789 0.305594
1765 1 0.511257 0.159174 0.326288
942 1 0.57383 0.20881 0.280413
928 1 0.640601 0.171656 0.282628
1841 1 0.752258 0.206145 0.32811
569 1 0.0415166 0.244324 0.330373
791 1 0.19497 0.2334 0.309595
857 1 0.274619 0.254713 0.287885
259 1 0.343114 0.224236 0.322782
27 1 0.496468 0.236113 0.292312
1978 1 0.671282 0.231295 0.322293
743 1 0.906247 0.250721 0.319915
1818 1 0.984561 0.213408 0.292852
1452 1 0.131548 0.280959 0.329946
653 1 0.205608 0.306422 0.316065
133 1 0.317571 0.308902 0.324824
1213 1 0.38369 0.288617 0.289837
1521 1 0.555506 0.305964 0.327134
233 1 0.628079 0.298139 0.30115
101 1 0.730508 0.263388 0.287381
595 1 0.834479 0.308331 0.284072
656 1 0.045819 0.341291 0.296186
1036 1 0.371662 0.367966 0.289954
1412 1 0.470458 0.348636 0.29285
384 1 0.615561 0.364563 0.330263
1657 1 0.697018 0.348078 0.27932
150 1 0.90171 0.354545 0.302395
852 1 0.047188 0.411723 0.33274
2034 1 0.124093 0.395128 0.307651
335 1 0.299085 0.392322 0.282889
856 1 0.774237 0.376158 0.300447
1778 1 0.374185 0.452654 0.287553
1763 1 0.458789 0.43299 0.306571
1505 1 0.565305 0.423712 0.307381
446 1 0.759731 0.443557 0.32572
1872 1 0.953628 0.424292 0.313608
957 1 0.00516423 0.482557 0.332899
1993 1 0.0832731 0.4762 0.313136
1226 1 0.17295 0.47466 0.325922
435 1 0.442128 0.513159 0.325867
1139 1 0.529979 0.498754 0.308603
686 1 0.616098 0.525034 0.327766
952 1 0.683447 0.47748 0.305017
1601 1 0.898162 0.475778 0.326017
987 1 0.0275897 0.569636 0.326211
1073 1 0.237746 0.572606 0.307873
1913 1 0.31857 0.548099 0.301771
818 1 0.486327 0.567301 0.296654
735 1 0.766297 0.542545 0.301144
1535 1 0.951829 0.546167 0.324392
393 1 0.0180727 0.621429 0.27984
915 1 0.0959338 0.592315 0.306939
314 1 0.330692 0.62995 0.320819
423 1 0.412348 0.594299 0.304344
1441 1 0.587154 0.593921 0.286081
419 1 0.821621 0.591373 0.329127
1686 1 0.899934 0.612358 0.329167
801 1 0.254262 0.646 0.313772
1424 1 0.485561 0.642075 0.310957
1878 1 0.60324 0.656691 0.332741
77 1 0.679315 0.660666 0.320484
1350 1 0.750325 0.635722 0.292716
518 1 0.822079 0.662579 0.31289
1025 1 0.965605 0.653794 0.318533
1421 1 0.0141784 0.700687 0.28654
1997 1 0.234743 0.716945 0.310679
315 1 0.377106 0.72034 0.31583
297 1 0.458986 0.725211 0.29424
1407 1 0.63538 0.722733 0.303064
13 1 0.714747 0.727738 0.292767
1114 1 0.886625 0.716925 0.318404
278 1 0.139582 0.754787 0.318869
155 1 0.776828 0.781005 0.299231
499 1 0.943314 0.7595 0.290837
58 1 0.0195917 0.790731 0.329871
1732 1 0.153924 0.841676 0.331083
1611 1 0.217484 0.830988 0.286039
1917 1 0.344334 0.791752 0.280954
511 1 0.429782 0.792146 0.315003
84 1 0.556666 0.813802 0.31356
514 1 0.0712956 0.850315 0.307676
26 1 0.422522 0.893056 0.328777
844 1 0.559037 0.883117 0.288455
615 1 0.757446 0.862593 0.316216
681 1 0.832923 0.842513 0.310525
245 1 0.992108 0.848761 0.293559
463 1 0.0450705 0.927017 0.300048
1506 1 0.118943 0.917039 0.302213
678 1 0.234029 0.906201 0.321628
1989 1 0.335413 0.912965 0.284208
1294 1 0.507072 0.93334 0.33077
426 1 0.632917 0.902568 0.280189
708 1 0.714867 0.93284 0.27843
134 1 0.808644 0.935336 0.32219
380 1 0.876936 0.913105 0.287174
161 1 0.965485 0.91733 0.284393
1897 1 0.0028206 0.99402 0.293468
53 1 0.169186 0.997353 0.30693
585 1 0.37002 0.958716 0.329949
528 1 0.579846 0.967389 0.320254
1346 1 0.653396 0.997412 0.298342
710 1 0.877106 0.99994 0.289378
1000 1 0.332648 0.00212152 0.387828
131 1 0.521495 0.0113324 0.387572
788 1 0.622305 0.0265662 0.366085
467 1 0.837811 0.0192122 0.354239
28 1 0.905768 0.0503351 0.338743
2043 1 0.014795 0.0545733 0.341084
1360 1 0.15414 0.0582238 0.356211
2027 1 0.218201 0.0983313 0.342784
15 1 0.271173 0.0530561 0.380572
30 1 0.410004 0.0540369 0.376515
1278 1 0.48585 0.0690128 0.357704
1668 1 0.696826 0.0689995 0.361741
701 1 0.773957 0.0592073 0.356891
1141 1 0.115306 0.145185 0.367474
137 1 0.281761 0.145635 0.385405
923 1 0.35457 0.150299 0.349335
1030 1 0.739727 0.128803 0.385552
1812 1 0.0408512 0.178715 0.368568
616 1 0.196939 0.174044 0.374045
1010 1 0.580751 0.165204 0.355243
1416 1 0.666794 0.170776 0.362137
1746 1 0.810636 0.162079 0.35597
614 1 0.873415 0.197661 0.379905
868 1 0.947195 0.178067 0.354618
758 1 0.272324 0.230733 0.362028
1440 1 0.414861 0.215451 0.382357
669 1 0.546143 0.235238 0.375106
767 1 0.82457 0.257452 0.345427
498 1 0.393948 0.312218 0.372793
194 1 0.457247 0.286079 0.336486
1871 1 0.669672 0.301199 0.365736
1189 1 0.763983 0.301181 0.34588
1879 1 0.97219 0.266048 0.350179
745 1 0.019777 0.344106 0.388801
1074 1 0.0960947 0.345411 0.359106
783 1 0.236777 0.353709 0.369172
128 1 0.494548 0.329747 0.38556
1462 1 0.84628 0.351564 0.349605
52 1 0.160697 0.377925 0.376252
2035 1 0.32083 0.408115 0.361991
693 1 0.399168 0.412734 0.354037
364 1 0.504635 0.405192 0.357555
1621 1 0.709554 0.388717 0.357793
94 1 0.90851 0.394877 0.37171
584 1 0.121242 0.452234 0.379149
40 1 0.230184 0.432474 0.351001
402 1 0.578297 0.457394 0.379952
1885 1 0.643608 0.432028 0.347587
1182 1 0.710824 0.468636 0.38742
375 1 0.82969 0.430915 0.363187
1681 1 0.261825 0.504869 0.349372
988 1 0.343436 0.480207 0.356778
238 1 0.82221 0.50728 0.341484
1095 1 0.951119 0.477493 0.381351
1731 1 0.0826191 0.526812 0.369268
1345 1 0.154732 0.550468 0.344047
1792 1 0.306573 0.557948 0.38342
881 1 0.462485 0.578745 0.368826
1233 1 0.549619 0.550381 0.362212
911 1 0.703931 0.543384 0.350104
235 1 0.883267 0.548823 0.371618
1626 1 0.166132 0.627654 0.343541
765 1 0.237848 0.610341 0.382813
1546 1 0.379069 0.586999 0.376768
2028 1 0.640237 0.595277 0.352297
873 1 0.752721 0.601598 0.366517
195 1 0.0666766 0.653172 0.348216
1599 1 0.415623 0.660356 0.351758
1846 1 0.909451 0.668489 0.376013
106 1 0.0737342 0.733146 0.344919
1121 1 0.185455 0.696971 0.367348
505 1 0.310309 0.709507 0.350314
1023 1 0.458526 0.711135 0.383459
904 1 0.552352 0.711079 0.338084
932 1 0.648905 0.711946 0.383963
1837 1 0.773019 0.723118 0.350768
798 1 0.83786 0.699695 0.384553
405 1 0.984078 0.719387 0.36275
1795 1 0.252812 0.781981 0.339822
454 1 0.494347 0.778718 0.3675
1183 1 0.0934161 0.793269 0.385864
252 1 0.357365 0.791261 0.356228
417 1 0.413782 0.832371 0.381876
938 1 0.636625 0.795091 0.363586
158 1 0.723836 0.790935 0.355628
996 1 0.813246 0.794761 0.3789
676 1 0.888755 0.792108 0.339918
1793 1 0.0948156 0.884075 0.373542
1994 1 0.248745 0.84333 0.380416
1577 1 0.318079 0.866948 0.345815
520 1 0.501033 0.858699 0.343656
1672 1 0.589169 0.882314 0.365085
217 1 0.680999 0.855469 0.335752
962 1 0.913676 0.86642 0.336754
1003 1 0.997215 0.891314 0.353402
1547 1 0.200382 0.92313 0.388136
565 1 0.290796 0.945969 0.348376
812 1 0.648206 0.944112 0.350562
1115 1 0.728514 0.915468 0.362148
1949 1 0.845246 0.895672 0.37341
1286 1 0.0648354 0.992854 0.339059
2032 1 0.138421 0.973146 0.387934
370 1 0.233324 0.996359 0.348825
1740 1 0.456686 0.980476 0.369851
843 1 0.737374 0.990723 0.34819
1598 1 0.885714 0.956761 0.35891
2024 1 0.983952 0.993642 0.376662
2010 1 0.0661458 0.000882756 0.41769
185 1 0.204628 0.0246067 0.41025
1102 1 0.778139 0.0439933 0.430548
1478 1 0.0953714 0.0827424 0.404772
275 1 0.221598 0.103828 0.425656
319 1 0.33438 0.0863458 0.409952
1370 1 0.474614 0.0894634 0.434615
1309 1 0.565092 0.072373 0.393317
792 1 0.639737 0.104896 0.401565
738 1 0.88446 0.0777912 0.412914
390 1 0.960969 0.0950353 0.390411
853 1 0.0302674 0.118498 0.415289
982 1 0.150489 0.125386 0.441548
1952 1 0.412331 0.138778 0.398028
2013 1 0.81248 0.126655 0.429733
237 1 0.0788681 0.188209 0.437247
568 1 0.350463 0.162491 0.434594
55 1 0.491603 0.167165 0.410752
283 1 0.573283 0.186187 0.424388
1026 1 0.713236 0.192495 0.430308
930 1 0.792458 0.205763 0.429481
995 1 0.98054 0.192687 0.420953
786 1 0.138186 0.218672 0.391709
240 1 0.266248 0.230809 0.439295
148 1 0.338416 0.230909 0.405878
1958 1 0.475284 0.253961 0.413172
1514 1 0.634551 0.229773 0.40045
1713 1 0.920019 0.253545 0.408314
1950 1 0.00978865 0.282023 0.427102
1454 1 0.0797043 0.267888 0.395414
1331 1 0.207052 0.268836 0.40114
312 1 0.29181 0.303793 0.405709
1291 1 0.410594 0.28077 0.440937
907 1 0.657669 0.292357 0.437552
1185 1 0.732218 0.264611 0.409637
85 1 0.806575 0.306213 0.409369
525 1 0.360138 0.359152 0.416416
773 1 0.591623 0.328862 0.398012
1092 1 0.722314 0.340404 0.419605
1325 1 0.880669 0.323856 0.427176
1840 1 0.94534 0.329436 0.390525
1437 1 0.0953108 0.387397 0.428292
256 1 0.226247 0.415386 0.428129
1566 1 0.291499 0.380577 0.440059
731 1 0.652338 0.374503 0.401722
715 1 0.783542 0.380278 0.399884
1716 1 0.987882 0.412046 0.405979
1100 1 0.0465017 0.457172 0.395067
276 1 0.297668 0.459644 0.421319
242 1 0.387826 0.430521 0.438709
910 1 0.197038 0.499167 0.405343
1825 1 0.383954 0.511086 0.418245
1891 1 0.495149 0.515423 0.398144
123 1 0.636976 0.481128 0.420586
1767 1 0.780932 0.48071 0.418059
293 1 0.879217 0.477306 0.406489
452 1 0.135111 0.55731 0.41986
1847 1 0.438412 0.564831 0.444251
885 1 0.580111 0.540789 0.444285
1283 1 0.662731 0.561254 0.436891
1464 1 0.734543 0.539657 0.420419
487 1 0.83172 0.548601 0.430697
527 1 0.997678 0.531586 0.397788
1836 1 0.0686294 0.598843 0.396167
1284 1 0.525744 0.591438 0.421858
107 1 0.602294 0.618464 0.421498
956 1 0.819695 0.623297 0.39762
1662 1 0.953976 0.598094 0.392327
14 1 0.0133332 0.655115 0.400393
600 1 0.128172 0.648444 0.415988
1201 1 0.226653 0.666528 0.442862
571 1 0.312828 0.638192 0.40005
1186 1 0.39308 0.644129 0.429119
246 1 0.530074 0.66933 0.405127
1133 1 0.695231 0.658026 0.403198
1843 1 0.766365 0.676824 0.418118
948 1 0.0378844 0.728896 0.418446
1470 1 0.122361 0.729215 0.420915
236 1 0.255255 0.720121 0.400212
684 1 0.384007 0.714445 0.403977
469 1 0.566243 0.734103 0.419559
986 1 0.176034 0.778068 0.392631
1700 1 0.419741 0.777482 0.436956
103 1 0.713581 0.740907 0.417128
759 1 0.879649 0.758316 0.424376
1722 1 0.0161249 0.808977 0.407053
1567 1 0.289211 0.790518 0.418688
739 1 0.481683 0.832355 0.417719
1117 1 0.565844 0.815357 0.391335
1663 1 0.764403 0.812505 0.444312
1060 1 0.933574 0.803373 0.403905
1076 1 0.053794 0.864168 0.442454
174 1 0.159805 0.855465 0.40993
1443 1 0.260475 0.891038 0.441389
64 1 0.702359 0.844712 0.412991
1207 1 0.893074 0.869287 0.422707