ITEM: TIMESTEP
100000
ITEM: NUMBER OF ATOMS
2048
ITEM: BOX BOUNDS pp pp pp
-6.8399037867067873e+00 6.8399037867067873e+00
-6.8399037867067873e+00 6.8399037867067873e+00
-6.8399037867067873e+00 6.8399037867067873e+00
ITEM: ATOMS id type xs ys zs
251 1 0.230679 0.0060961 0.0291279
1348 1 0.423692 0.0470558 0.0271573
81 1 0.662875 0.00131566 0.0305503
1458 1 0.941386 0.0260435 0.0222634
1725 1 0.0685906 0.0664423 0.0390113
959 1 0.211098 0.0766567 0.0178823
1149 1 0.51279 0.0486174 0.0257254
1182 1 0.634299 0.0750673 0.00976931
1918 1 0.834754 0.048565 0.0108161
41 1 0.327161 0.107485 0.0012024
1364 1 0.452684 0.109658 0.00835119
176 1 0.520792 0.126317 0.0379369
25 1 0.679464 0.133825 0.00949494
1844 1 0.884366 0.095646 0.0280199
1980 1 0.0753398 0.151229 0.0306597
1046 1 0.210597 0.163743 0.0432221
678 1 0.293364 0.169556 0.0190159
1777 1 0.390267 0.150203 0.01555
429 1 0.475495 0.185874 0.0461424
355 1 0.750788 0.185159 0.027999
1810 1 0.882955 0.166892 0.0425821
719 1 0.964463 0.179597 0.0330917
31 1 0.398489 0.234004 0.0364004
121 1 0.548215 0.201996 0.0242474
296 1 0.825467 0.211044 0.0312666
1825 1 0.124559 0.282767 0.0306518
344 1 0.698854 0.245448 0.0099043
1848 1 0.286309 0.309613 0.0375645
647 1 0.35309 0.324094 0.0220827
278 1 0.777525 0.307511 0.0393621
1 1 0.975569 0.327065 0.0440762
907 1 0.0445241 0.344564 0.0273896
844 1 0.114778 0.348471 0.00584183
1119 1 0.221313 0.380558 0.016302
294 1 0.423908 0.349914 0.0240558
998 1 0.563222 0.351277 0.0127683
854 1 0.781545 0.378351 0.0120639
996 1 0.382052 0.412444 0.0241052
941 1 0.491109 0.397534 0.0172392
264 1 0.553995 0.426096 0.000865122
397 1 0.690351 0.409626 0.030188
416 1 0.842436 0.405954 0.0444579
487 1 0.00362449 0.430925 0.0287845
72 1 0.623121 0.437223 0.0136124
1440 1 0.933891 0.434938 0.0452623
552 1 0.0380272 0.497151 0.0450451
1163 1 0.171978 0.488501 0.000203891
1813 1 0.252113 0.497032 0.0325147
118 1 0.355577 0.485566 0.0199505
392 1 0.483941 0.492404 0.0295415
1534 1 0.0203573 0.55942 0.00753572
1414 1 0.177292 0.565889 0.0155774
1715 1 0.303753 0.548594 0.0183744
503 1 0.726194 0.570724 0.0149839
903 1 0.789254 0.541325 0.00609532
1028 1 0.87905 0.538131 0.0156852
1661 1 0.946541 0.538908 0.0472083
1315 1 0.380802 0.599723 0.0120148
377 1 0.564081 0.583869 0.0155581
1907 1 0.79789 0.61843 0.0314374
188 1 0.0448045 0.630219 0.00255876
489 1 0.128619 0.620749 0.0245776
709 1 0.290658 0.621729 0.0229447
663 1 0.487606 0.628224 0.00449802
1946 1 0.882991 0.652105 0.0339584
820 1 0.357414 0.668143 0.0237414
480 1 0.428524 0.672126 0.00673302
1297 1 0.0225865 0.734779 0.0373343
1748 1 0.219136 0.720288 0.0142013
904 1 0.280738 0.715073 0.043368
1801 1 0.412028 0.747778 0.0174948
1846 1 0.48072 0.757016 0.041335
1664 1 0.555308 0.734309 0.0428082
1903 1 0.67595 0.742237 0.0374686
1912 1 0.848415 0.727503 0.0386836
767 1 0.94866 0.715598 0.0124884
440 1 0.0932576 0.762548 0.0462987
1747 1 0.153169 0.79376 0.0459127
975 1 0.769651 0.76918 0.00195215
1641 1 0.904516 0.78187 0.0351168
1736 1 0.974966 0.793185 0.0286897
1121 1 0.0694057 0.833714 0.0220759
1718 1 0.280455 0.8427 0.0291695
1284 1 0.397348 0.851477 0.039907
1281 1 0.569581 0.832259 0.0317505
376 1 0.674096 0.818599 0.014965
1817 1 0.133275 0.87199 0.00857263
1788 1 0.448977 0.902157 0.0304591
1620 1 0.516183 0.880477 0.0117085
1928 1 0.717341 0.876611 0.00859148
2042 1 0.893006 0.899451 0.0416951
1901 1 0.98221 0.896781 0.0291548
710 1 0.156375 0.949285 0.0182116
944 1 0.384071 0.930828 0.000473371
257 1 0.543306 0.941919 0.0443247
1649 1 0.615486 0.907481 0.0334819
129 1 0.822743 0.927369 0.0242902
7 1 0.0905794 0.986963 0.0260606
21 1 0.29887 0.96748 0.0365041
1228 1 0.36975 0.991722 0.0433477
870 1 0.444279 0.981323 0.00143189
629 1 0.787069 0.993393 0.019841
621 1 0.125604 0.0227555 0.0883158
1031 1 0.312785 0.0366349 0.0638949
1484 1 0.993686 0.0299594 0.0674529
1041 1 0.252368 0.0633331 0.0796417
757 1 0.374672 0.083403 0.0650805
960 1 0.591404 0.0759924 0.0683037
391 1 0.670813 0.0843552 0.0707003
724 1 0.748282 0.0776049 0.0551174
1656 1 0.827041 0.0714724 0.0904498
1877 1 0.0866629 0.117886 0.0934948
544 1 0.157734 0.1228 0.0510613
630 1 0.960701 0.0962677 0.0540309
1549 1 0.284348 0.153909 0.0915637
159 1 0.424926 0.147026 0.0756533
825 1 0.614773 0.150252 0.0594569
263 1 0.669417 0.184282 0.0879905
1401 1 0.789136 0.14847 0.0753474
428 1 0.137566 0.215763 0.0492948
332 1 0.273649 0.226527 0.0558322
1772 1 0.629356 0.2302 0.0514333
1506 1 0.0414888 0.281734 0.0721166
585 1 0.203917 0.257111 0.0559226
2024 1 0.341995 0.277556 0.0867811
1339 1 0.544527 0.277381 0.0777354
1095 1 0.745287 0.246857 0.085933
386 1 0.84456 0.279563 0.0507997
1293 1 0.948571 0.241004 0.0769764
317 1 0.140179 0.3328 0.0817843
514 1 0.216022 0.331797 0.0755891
200 1 0.474172 0.286921 0.0570606
1651 1 0.680912 0.329107 0.0516538
898 1 0.904036 0.330322 0.064386
510 1 0.0715829 0.371892 0.0888896
422 1 0.610314 0.351176 0.0818454
2027 1 0.135029 0.408005 0.0622834
1514 1 0.31405 0.402533 0.0764076
343 1 0.439898 0.42165 0.0638132
1305 1 0.753636 0.40072 0.0835502
466 1 0.953059 0.382691 0.0931402
1840 1 0.213722 0.45174 0.0751009
191 1 0.574732 0.44315 0.0711636
90 1 0.708524 0.456744 0.0810774
899 1 0.120318 0.485177 0.0639342
2036 1 0.579473 0.51132 0.047698
396 1 0.769033 0.490636 0.0609035
946 1 0.863657 0.480714 0.0734576
1363 1 0.238078 0.570166 0.0600028
64 1 0.366245 0.546447 0.0641812
1752 1 0.435392 0.560663 0.047848
1359 1 0.518034 0.545642 0.0677669
1671 1 0.679302 0.527859 0.0485511
543 1 0.819705 0.54785 0.0675467
125 1 0.884591 0.560306 0.0922764
1302 1 0.0886434 0.571606 0.0532908
1022 1 0.627939 0.615444 0.0617023
455 1 0.694024 0.601681 0.0744934
300 1 0.980187 0.601215 0.0575171
248 1 0.0495001 0.636144 0.0722747
1550 1 0.152151 0.648349 0.0897419
10 1 0.240621 0.657759 0.0569014
147 1 0.547903 0.619249 0.0775779
498 1 0.0866542 0.696741 0.061243
1638 1 0.406229 0.678406 0.0915864
566 1 0.605359 0.687663 0.0580943
1487 1 0.67601 0.679469 0.0697973
210 1 0.825916 0.686509 0.0948366
92 1 0.906752 0.707381 0.0884988
521 1 0.99501 0.681066 0.0743043
437 1 0.157411 0.725812 0.0800049
1595 1 0.345556 0.801921 0.053274
858 1 0.60123 0.782554 0.0927553
1204 1 0.211261 0.838578 0.0831932
1400 1 0.431722 0.815135 0.0928952
1735 1 0.723517 0.812898 0.0668836
155 1 0.79392 0.815484 0.0625521
203 1 0.864742 0.836828 0.0512265
977 1 0.936046 0.832268 0.0765068
864 1 0.145707 0.874501 0.0774052
1251 1 0.272377 0.902864 0.0599442
1975 1 0.344279 0.901784 0.0702199
1131 1 0.412869 0.895984 0.0943537
24 1 0.579791 0.879656 0.0871745
1230 1 0.650934 0.86121 0.0735871
1111 1 0.770073 0.892118 0.0740173
40 1 0.0127395 0.950057 0.0609021
1456 1 0.0975044 0.927966 0.0619951
691 1 0.713351 0.946737 0.072842
1714 1 0.474552 0.99261 0.0739322
1299 1 0.830397 0.983739 0.0753619
753 1 0.939503 0.954458 0.049568
548 1 0.196089 0.0303377 0.11357
1343 1 0.265278 0.00277045 0.108549
685 1 0.397114 0.0201392 0.109985
1533 1 0.607673 0.0149783 0.0972526
2022 1 0.770268 0.0176163 0.100461
313 1 0.881368 0.0286795 0.10398
341 1 0.996205 0.0419863 0.139903
1695 1 0.0710326 0.0487211 0.121538
731 1 0.289942 0.088521 0.13997
1336 1 0.014536 0.110393 0.0971437
927 1 0.225593 0.128601 0.126872
1660 1 0.356956 0.114033 0.124222
760 1 0.512953 0.11903 0.109348
845 1 0.58076 0.119685 0.129624
368 1 0.720894 0.133629 0.110785
1252 1 0.77457 0.0972731 0.139057
655 1 0.876951 0.115171 0.134581
233 1 0.0993596 0.187058 0.115988
470 1 0.167195 0.174483 0.104144
912 1 0.556307 0.182082 0.109282
586 1 0.885069 0.185575 0.11216
1642 1 0.0135321 0.192547 0.101139
701 1 0.235046 0.202006 0.115844
1055 1 0.363773 0.198624 0.111997
162 1 0.503494 0.2325 0.109385
1145 1 0.81331 0.202792 0.117336
269 1 0.116584 0.270094 0.112023
646 1 0.188262 0.253944 0.138786
1566 1 0.251017 0.27705 0.106982
1616 1 0.407706 0.266366 0.103175
991 1 0.659426 0.270574 0.0988751
1998 1 0.821549 0.282782 0.124574
1631 1 0.501232 0.324241 0.109791
1290 1 0.735945 0.313114 0.112489
673 1 0.981667 0.319107 0.111684
1991 1 0.182769 0.378034 0.129921
1818 1 0.283111 0.347427 0.117435
491 1 0.394097 0.339849 0.0993019
488 1 0.805927 0.349104 0.0978329
567 1 0.88194 0.375042 0.124094
1793 1 0.108219 0.413439 0.135809
1957 1 0.247564 0.403906 0.140565
1636 1 0.395569 0.407866 0.133279
1090 1 0.486744 0.392238 0.136936
58 1 0.616236 0.414143 0.138011
1459 1 0.819076 0.420302 0.123071
1687 1 0.0184299 0.434682 0.12217
1983 1 0.186937 0.451274 0.139856
2000 1 0.39039 0.474038 0.106686
1962 1 0.502358 0.455624 0.0956381
2011 1 0.907158 0.43906 0.109845
463 1 0.0665961 0.486614 0.109748
1379 1 0.21049 0.514759 0.105808
1965 1 0.307651 0.479828 0.120809
578 1 0.56456 0.515187 0.125985
880 1 0.650489 0.491519 0.113101
814 1 0.944029 0.495865 0.112369
1576 1 0.0117143 0.552959 0.0953713
1944 1 0.121167 0.541065 0.116823
1496 1 0.295543 0.556626 0.111402
805 1 0.736687 0.546789 0.101922
1509 1 0.181786 0.583342 0.115629
124 1 0.383044 0.607484 0.109419
1821 1 0.473113 0.591491 0.0974421
698 1 0.532511 0.578157 0.13086
54 1 0.597008 0.607613 0.133998
920 1 0.00813162 0.623327 0.133168
1158 1 0.287753 0.625968 0.102622
1152 1 0.526856 0.646344 0.139101
1482 1 0.738466 0.651931 0.115078
414 1 0.905104 0.625266 0.135007
1175 1 0.210775 0.701142 0.127524
688 1 0.324895 0.688234 0.109058
624 1 0.473645 0.684588 0.113954
299 1 0.568776 0.710511 0.125691
1875 1 0.0809341 0.73544 0.120138
706 1 0.408417 0.749037 0.100748
2037 1 0.48659 0.760126 0.128021
938 1 0.707045 0.739148 0.11123
1077 1 0.778569 0.752659 0.136738
1851 1 0.857527 0.757953 0.0994438
53 1 0.0688854 0.801742 0.0972369
2003 1 0.189537 0.782871 0.135386
619 1 0.254916 0.77427 0.0968601
1507 1 0.350126 0.765513 0.14119
148 1 0.671906 0.804629 0.124013
133 1 0.968006 0.786126 0.1122
954 1 0.00810009 0.843038 0.09881
596 1 0.287383 0.845165 0.116031
947 1 0.360954 0.838274 0.124199
1220 1 0.513058 0.837237 0.0957887
1304 1 0.802948 0.825996 0.136451
161 1 0.871845 0.834725 0.126163
426 1 0.0864692 0.869514 0.121494
1544 1 0.493205 0.902812 0.119587
322 1 0.707382 0.872986 0.119708
1999 1 0.785799 0.896265 0.141781
1323 1 0.940345 0.901265 0.119015
192 1 0.0557696 0.932292 0.121149
1497 1 0.137233 0.924702 0.132062
574 1 0.276832 0.927069 0.130604
897 1 0.644298 0.928481 0.108798
1115 1 0.861417 0.911738 0.121987
1733 1 0.207109 0.954108 0.128004
1246 1 0.338218 0.981317 0.120802
1559 1 0.43557 0.956232 0.127963
67 1 0.544083 0.953071 0.124225
1403 1 0.916823 0.968808 0.122858
1495 1 0.540024 0.0291585 0.145333
1894 1 0.724381 0.0473244 0.159962
1511 1 0.128785 0.0641878 0.150409
528 1 0.224451 0.0715769 0.184439
831 1 0.375211 0.0711239 0.178482
778 1 0.48298 0.0677318 0.165301
1553 1 0.599371 0.0717093 0.178473
52 1 0.65868 0.0863162 0.144848
1277 1 0.826343 0.0545476 0.160782
427 1 0.933827 0.0731269 0.143213
1174 1 0.0580772 0.12713 0.163192
1527 1 0.127801 0.132693 0.16765
1701 1 0.428483 0.112163 0.149001
873 1 0.82762 0.141471 0.182334
911 1 0.970264 0.132398 0.158477
272 1 0.2102 0.183382 0.18368
2020 1 0.305607 0.154371 0.161213
27 1 0.494254 0.187136 0.166264
955 1 0.666173 0.1617 0.155553
1388 1 0.731087 0.146858 0.178787
573 1 0.900177 0.162948 0.186277
1643 1 0.119137 0.231693 0.180902
1208 1 0.407566 0.208714 0.165155
2010 1 0.636171 0.224289 0.153889
443 1 0.853622 0.234944 0.170828
795 1 0.0065555 0.239738 0.160838
834 1 0.31002 0.264689 0.158362
1201 1 0.534934 0.283824 0.159122
558 1 0.0557575 0.301278 0.149418
1490 1 0.236786 0.314732 0.168047
891 1 0.450819 0.310703 0.166591
786 1 0.615023 0.304962 0.151102
1082 1 0.890985 0.290763 0.148283
971 1 0.0158087 0.371766 0.151432
128 1 0.116109 0.342624 0.153354
1697 1 0.359705 0.347333 0.176452
923 1 0.678767 0.34322 0.178786
1078 1 0.835788 0.356702 0.173451
804 1 0.942379 0.359523 0.178618
1412 1 0.337196 0.426581 0.158085
636 1 0.740982 0.401471 0.172966
359 1 0.268007 0.461026 0.180973
312 1 0.555695 0.446931 0.155735
965 1 0.672819 0.463999 0.177983
1365 1 0.00932714 0.504791 0.147568
216 1 0.0993635 0.502021 0.183447
1955 1 0.449843 0.517039 0.147357
235 1 0.512714 0.49848 0.174025
1505 1 0.603574 0.497041 0.180824
1200 1 0.752161 0.486949 0.145948
1469 1 0.0582 0.561983 0.150093
2038 1 0.246817 0.535487 0.164752
1541 1 0.345262 0.539875 0.165685
1383 1 0.684406 0.535766 0.152901
411 1 0.82153 0.53018 0.15491
1712 1 0.882407 0.562357 0.169352
878 1 0.950314 0.565579 0.14517
1504 1 0.143089 0.604213 0.169304
1839 1 0.293664 0.603379 0.179511
1404 1 0.434791 0.611199 0.158621
1314 1 0.717338 0.603985 0.169134
226 1 0.81509 0.602253 0.145525
1646 1 0.0796212 0.637741 0.171002
1575 1 0.211696 0.638242 0.168485
802 1 0.339512 0.663925 0.171475
771 1 0.659727 0.63937 0.145205
261 1 0.0255902 0.693247 0.184067
363 1 0.877773 0.67862 0.174384
1637 1 0.129678 0.717286 0.176281
703 1 0.290862 0.717175 0.164904
1611 1 0.399987 0.719522 0.187329
1568 1 0.64804 0.73019 0.142935
1247 1 0.964323 0.730355 0.158323
690 1 0.0466228 0.777221 0.167445
859 1 0.123715 0.788481 0.180095
1227 1 0.245162 0.773488 0.169258
1218 1 0.311487 0.799323 0.188644
527 1 0.416671 0.797034 0.17456
1860 1 0.544988 0.7818 0.161874
926 1 0.883973 0.799561 0.185538
785 1 0.0642305 0.849911 0.186298
205 1 0.15423 0.851244 0.154019
686 1 0.47982 0.831487 0.163577
91 1 0.54616 0.851597 0.188708
729 1 0.616249 0.842984 0.156167
608 1 0.745888 0.835045 0.182965
687 1 0.224585 0.866368 0.148449
1538 1 0.684679 0.872125 0.185148
361 1 0.978577 0.859745 0.168731
388 1 0.589112 0.907111 0.164073
1214 1 0.988941 0.939144 0.144064
14 1 0.0918575 0.979514 0.156045
601 1 0.632393 0.966959 0.166048
627 1 0.711714 0.957113 0.145139
1032 1 0.782744 0.967914 0.157812
1318 1 0.322323 0.0126592 0.193565
1385 1 0.386366 0.0001584 0.22289
1580 1 0.527537 0.0324878 0.231239
1584 1 0.666157 0.0286152 0.23536
1883 1 0.964309 0.0461284 0.214315
1893 1 0.0320052 0.0746156 0.224083
1948 1 0.289794 0.0762631 0.208227
381 1 0.429325 0.0603106 0.227086
446 1 0.785286 0.0617905 0.216445
1044 1 0.878748 0.0912574 0.206836
1730 1 0.106347 0.102277 0.236057
432 1 0.468954 0.118357 0.216665
433 1 0.764506 0.123869 0.235712
12 1 0.151785 0.15498 0.22913
561 1 0.375264 0.165499 0.230515
1029 1 0.637049 0.165067 0.225421
2031 1 0.043169 0.20737 0.213818
454 1 0.317331 0.208994 0.229641
1101 1 0.569151 0.215723 0.20596
1588 1 0.764529 0.230633 0.190774
934 1 0.828955 0.206156 0.235401
1177 1 0.96192 0.193935 0.210143
751 1 0.231903 0.249922 0.199496
1653 1 0.463011 0.246357 0.229422
1342 1 0.598458 0.284004 0.218918
772 1 0.668261 0.2604 0.209883
1352 1 0.910028 0.26507 0.237359
1884 1 0.985815 0.274822 0.219799
1852 1 0.439406 0.326667 0.236255
1463 1 0.823601 0.287125 0.211528
1737 1 0.00950095 0.350955 0.219615
1768 1 0.282225 0.351754 0.2273
1053 1 0.528922 0.380481 0.224947
1234 1 0.607109 0.357532 0.213821
554 1 0.74876 0.342916 0.217405
1467 1 0.893862 0.365528 0.236372
1696 1 0.0245598 0.42299 0.200555
1880 1 0.220007 0.385088 0.214331
1624 1 0.452003 0.388996 0.211733
810 1 0.113875 0.450576 0.221499
739 1 0.32298 0.436336 0.229575
556 1 0.4498 0.466277 0.208784
330 1 0.531628 0.455127 0.226864
365 1 0.886772 0.442512 0.21213
1335 1 0.956593 0.446884 0.196578
1186 1 0.178223 0.484188 0.200274
533 1 0.296895 0.503064 0.232093
1613 1 0.712942 0.485832 0.233885
139 1 0.8133 0.49486 0.218133
1272 1 0.926192 0.511466 0.197958
662 1 0.00306608 0.533128 0.215563
1774 1 0.120062 0.558662 0.235678
1181 1 0.420595 0.544435 0.20932
164 1 0.665158 0.543328 0.223523
1422 1 0.755467 0.540887 0.199821
822 1 0.0459726 0.59254 0.218071
1274 1 0.195845 0.589585 0.215792
1871 1 0.367697 0.60018 0.220522
478 1 0.596078 0.584569 0.219895
380 1 0.975294 0.604782 0.198329
1346 1 0.293938 0.654624 0.231457
1558 1 0.537764 0.624983 0.214364
215 1 0.786944 0.629885 0.212355
292 1 0.858284 0.635122 0.232979
689 1 0.0775975 0.675651 0.230985
199 1 0.230689 0.684832 0.225935
187 1 0.541744 0.702354 0.211505
1862 1 0.695789 0.692374 0.222475
921 1 0.770498 0.693393 0.193051
1593 1 0.934243 0.666748 0.22121
565 1 0.48575 0.747938 0.204067
808 1 0.741445 0.759806 0.194566
103 1 0.902991 0.734788 0.224705
137 1 0.0851295 0.791028 0.23717
419 1 0.626935 0.768648 0.203756
779 1 0.816603 0.787027 0.205554
516 1 0.126605 0.853739 0.222331
797 1 0.19442 0.813544 0.235621
777 1 0.424835 0.847377 0.229558
1545 1 0.494879 0.819867 0.233725
2009 1 0.653033 0.823914 0.234705
490 1 0.839767 0.855579 0.221577
676 1 0.980875 0.811779 0.23586
1967 1 0.185525 0.890834 0.208563
211 1 0.264997 0.894521 0.201612
1963 1 0.3651 0.862381 0.190833
1446 1 0.0175426 0.9122 0.203697
183 1 0.0994461 0.918586 0.195703
1278 1 0.344404 0.946169 0.205406
1399 1 0.43003 0.913581 0.201811
1215 1 0.653551 0.924911 0.223565
418 1 0.859072 0.918648 0.196746
626 1 0.0303942 0.982182 0.19919
550 1 0.130304 0.986153 0.219644
1614 1 0.201108 0.995228 0.192081
2016 1 0.487009 0.977795 0.198495
250 1 0.56037 0.96944 0.206497
682 1 0.834901 0.984844 0.205655
57 1 0.947622 0.968034 0.202105
106 1 0.592343 0.0450048 0.269126
1069 1 0.741371 0.0399557 0.267244
1764 1 0.178799 0.0571889 0.238295
1806 1 0.225468 0.0764565 0.283613
617 1 0.356753 0.0650362 0.262916
843 1 0.887456 0.0582154 0.271278
116 1 0.0176241 0.138778 0.251062
1719 1 0.32431 0.125234 0.259655
1259 1 0.428781 0.116294 0.271777
642 1 0.578999 0.116865 0.241663
2004 1 0.684326 0.103988 0.238899
1815 1 0.944705 0.12769 0.243382
1798 1 0.0764557 0.183265 0.276171
462 1 0.254994 0.144295 0.242079
1313 1 0.522002 0.160561 0.246076
588 1 0.717126 0.184423 0.242812
1402 1 0.469619 0.196697 0.278959
2023 1 0.598538 0.21093 0.268676
1189 1 0.914336 0.192446 0.269255
1079 1 0.0414618 0.248871 0.27576
1382 1 0.146555 0.239954 0.247445
168 1 0.28081 0.26766 0.279886
1560 1 0.378634 0.284506 0.251962
1698 1 0.546834 0.256042 0.282353
1442 1 0.676844 0.252453 0.2808
1668 1 0.770043 0.253673 0.275097
196 1 0.2082 0.310427 0.247541
1666 1 0.513765 0.310197 0.253263
1345 1 0.960162 0.309226 0.277034
1886 1 0.0816718 0.341881 0.2393
44 1 0.145216 0.37774 0.250159
1934 1 0.577544 0.350835 0.281041
413 1 0.81551 0.349209 0.253122
1992 1 0.0630332 0.402701 0.265849
1836 1 0.208583 0.398344 0.284484
1062 1 0.652249 0.382738 0.262443
238 1 0.806267 0.424481 0.253208
1295 1 0.948947 0.40667 0.253865
541 1 0.167379 0.473877 0.269937
770 1 0.24188 0.452802 0.248705
1873 1 0.396251 0.443378 0.2553
1341 1 0.491254 0.430379 0.284565
1465 1 0.612643 0.451163 0.244881
850 1 0.087194 0.508467 0.282098
1915 1 0.244532 0.51897 0.285512
711 1 0.381099 0.511727 0.279744
1923 1 0.481155 0.50368 0.262763
1030 1 0.182115 0.55597 0.278829
96 1 0.537145 0.560008 0.259607
1184 1 0.729653 0.553046 0.267716
154 1 0.874103 0.531488 0.272092
782 1 0.258872 0.579486 0.245056
1906 1 0.481714 0.615509 0.258785
1919 1 0.683022 0.613861 0.25796
107 1 0.913002 0.579957 0.238336
930 1 0.122658 0.628207 0.257776
194 1 0.42163 0.657958 0.246296
1942 1 0.540428 0.659595 0.275121
580 1 0.00640698 0.6853 0.261316
415 1 0.342059 0.692326 0.270826
1306 1 0.621835 0.667806 0.252667
457 1 0.761431 0.699034 0.265313
479 1 0.832615 0.693923 0.258889
1794 1 0.923614 0.699259 0.285294
584 1 0.0821151 0.731472 0.273102
1287 1 0.28891 0.744502 0.239586
324 1 0.431485 0.749739 0.267356
970 1 0.575319 0.744437 0.25354
1639 1 0.64018 0.731548 0.275165
221 1 0.716244 0.758868 0.275686
1294 1 0.142872 0.786164 0.281503
1543 1 0.263131 0.794697 0.284307
1118 1 0.35752 0.765045 0.242048
1447 1 0.867748 0.781946 0.26205
1072 1 0.0370475 0.84982 0.253
326 1 0.342363 0.853608 0.259265
1579 1 0.559289 0.829886 0.260473
511 1 0.23205 0.873728 0.262044
1236 1 0.490425 0.893227 0.247987
1190 1 0.745137 0.866278 0.249063
1727 1 0.932072 0.870121 0.241834
776 1 0.243275 0.946818 0.246057
1478 1 0.443879 0.939609 0.278191
1953 1 0.583977 0.913625 0.25097
1970 1 0.795014 0.914354 0.238866
1049 1 0.865105 0.929631 0.266506
472 1 0.0217185 0.954774 0.267444
609 1 0.185509 0.97902 0.280284
841 1 0.304668 0.991703 0.267995
1547 1 0.50827 0.981818 0.277119
943 1 0.734228 0.970801 0.244876
1800 1 0.8025 0.977423 0.277796
1001 1 0.108621 0.0178644 0.287291
1498 1 0.628023 0.0182218 0.321722
1454 1 0.916705 0.00133802 0.308353
1142 1 0.998825 0.0202802 0.305675
1150 1 0.173659 0.0489462 0.333251
1647 1 0.288661 0.0613461 0.316421
936 1 0.42257 0.0511246 0.31952
1486 1 0.499044 0.0638827 0.285794
1947 1 0.576282 0.0784432 0.323948
1650 1 0.659041 0.0901969 0.322379
889 1 0.80907 0.0730706 0.295658
1330 1 0.955848 0.0830011 0.30084
634 1 0.0321242 0.096574 0.304919
718 1 0.154351 0.125071 0.29323
126 1 0.373417 0.1185 0.32862
277 1 0.520087 0.122276 0.311686
848 1 0.738594 0.111207 0.316239
1936 1 0.862801 0.135641 0.286554
968 1 0.134488 0.187859 0.31622
318 1 0.213793 0.18801 0.294474
1530 1 0.587562 0.153827 0.325423
905 1 0.661833 0.167407 0.2998
1578 1 0.795305 0.169362 0.310882
865 1 0.947697 0.152643 0.317554
469 1 0.275117 0.211253 0.330802
1537 1 0.351091 0.227015 0.308674
722 1 0.418856 0.214784 0.330659
1011 1 0.526086 0.192072 0.331173
670 1 0.966026 0.223633 0.312248
1016 1 0.202413 0.282189 0.315138
1753 1 0.465528 0.269284 0.295506
2017 1 0.84875 0.257057 0.297266
1340 1 0.110715 0.312865 0.300094
616 1 0.319387 0.329992 0.299586
1367 1 0.397136 0.324412 0.321574
308 1 0.610044 0.300127 0.316939
1920 1 0.755837 0.321986 0.294574
305 1 0.902901 0.312826 0.319888
1551 1 0.0482037 0.34463 0.3049
60 1 0.173416 0.355413 0.330472
1286 1 0.14241 0.421043 0.307657
1949 1 0.281419 0.397308 0.298188
493 1 0.359318 0.388667 0.289318
439 1 0.572824 0.423893 0.29753
156 1 0.623364 0.39222 0.331693
1166 1 0.717627 0.388415 0.299584
900 1 0.846424 0.382377 0.322022
98 1 0.219548 0.46677 0.321008
11 1 0.290236 0.467074 0.318717
1104 1 0.7663 0.475789 0.295083
1621 1 0.868526 0.455401 0.291431
229 1 0.0136101 0.476689 0.294442
754 1 0.533115 0.517679 0.322723
3 1 0.670369 0.489731 0.298973
241 1 0.936126 0.494362 0.290674
591 1 0.456911 0.55184 0.31563
1574 1 0.68683 0.55388 0.333248
1546 1 0.795692 0.563861 0.301041
152 1 0.953394 0.556168 0.329361
37 1 0.116975 0.580792 0.319525
1093 1 0.233888 0.609298 0.332742
756 1 0.307323 0.602336 0.296347
1564 1 0.505817 0.603783 0.332474
99 1 0.629103 0.573545 0.286464
1112 1 0.868148 0.591403 0.3072
135 1 0.992834 0.616678 0.299245
1321 1 0.0641574 0.6429 0.29413
1285 1 0.785964 0.639063 0.302806
1425 1 0.169642 0.682254 0.301846
173 1 0.269417 0.677981 0.301324
1384 1 0.475581 0.695432 0.300315
1194 1 0.686975 0.681091 0.296683
937 1 0.21898 0.734245 0.300902
1250 1 0.311108 0.743618 0.31199
895 1 0.843672 0.751602 0.32443
1223 1 0.981213 0.746976 0.290055
405 1 0.0396372 0.78377 0.29005
1014 1 0.638407 0.797402 0.303974
1344 1 0.784707 0.781657 0.294436
794 1 0.975109 0.8031 0.333102
902 1 0.121209 0.84812 0.320291
523 1 0.206763 0.839597 0.315365
2041 1 0.403634 0.82603 0.315046
1689 1 0.474033 0.825337 0.300995
1723 1 0.578866 0.845814 0.327247
1742 1 0.699131 0.85101 0.309043
2008 1 0.825593 0.846982 0.291672
71 1 0.308112 0.859919 0.320629
744 1 0.380815 0.902606 0.300687
1411 1 0.628657 0.88284 0.303556
1604 1 0.905304 0.885636 0.327225
1151 1 0.974257 0.89043 0.297985
431 1 0.0719458 0.915887 0.300621
1767 1 0.165324 0.906358 0.305904
953 1 0.301176 0.935415 0.310269
675 1 0.496866 0.912272 0.324594
876 1 0.570729 0.943836 0.31317
1571 1 0.246895 0.989377 0.317631
906 1 0.385819 0.987189 0.299619
935 1 0.686515 0.979458 0.299311
1700 1 0.343007 0.0427912 0.367282
1264 1 0.498844 0.0064983 0.365749
1703 1 0.7181 0.0431091 0.335607
1056 1 0.777113 0.0305309 0.375206
1816 1 0.0369731 0.0521438 0.363431
979 1 0.096854 0.0837425 0.346169
346 1 0.251151 0.0917342 0.376702
1744 1 0.49404 0.0773875 0.371674
603 1 0.862995 0.0562014 0.352528
593 1 0.978267 0.0900292 0.371135
314 1 0.200272 0.136708 0.35153
1841 1 0.80531 0.102386 0.355985
750 1 0.873739 0.138514 0.367458
1350 1 0.307528 0.143329 0.343985
801 1 0.448232 0.147016 0.347442
1896 1 0.0322669 0.193125 0.342869
1974 1 0.21172 0.213309 0.365212
1083 1 0.586929 0.226931 0.341521
1451 1 0.718531 0.211608 0.334987
1941 1 0.842606 0.199004 0.371451
2045 1 0.954602 0.192136 0.378463
481 1 0.0858047 0.247955 0.340628
759 1 0.257045 0.26856 0.372499
207 1 0.482093 0.262981 0.374982
202 1 0.659466 0.249924 0.367912
1219 1 0.779381 0.271661 0.346334
412 1 0.900921 0.238269 0.345085
181 1 0.0450465 0.318185 0.378592
1047 1 0.1384 0.300409 0.370969
842 1 0.245887 0.329802 0.34638
720 1 0.342567 0.292393 0.362348
613 1 0.521441 0.305311 0.334566
28 1 0.683563 0.321781 0.337395
857 1 0.997752 0.287137 0.337483
1842 1 0.708452 0.379279 0.366348
1240 1 0.790044 0.357231 0.370783
1127 1 0.963372 0.350083 0.351359
356 1 0.0525164 0.397249 0.354585
1539 1 0.330451 0.408868 0.351771
1520 1 0.40274 0.38235 0.360156
1134 1 0.49236 0.383262 0.362466
1972 1 0.918328 0.4032 0.337503
449 1 0.11213 0.475161 0.345663
742 1 0.446877 0.463123 0.333519
1602 1 0.716324 0.459682 0.342007
994 1 0.982529 0.429471 0.338976
1676 1 0.30454 0.522037 0.373367
1371 1 0.501275 0.481025 0.372671
102 1 0.632961 0.519617 0.364294
1847 1 0.842803 0.505524 0.342832
882 1 0.0159468 0.524394 0.354207
542 1 0.187876 0.534452 0.352796
1199 1 0.365734 0.559897 0.360778
1927 1 0.0528377 0.605794 0.363786
316 1 0.582983 0.581603 0.342558
1644 1 0.779551 0.600899 0.371684
1501 1 0.89648 0.572034 0.378363
399 1 0.113027 0.638817 0.362133
728 1 0.343262 0.653912 0.35002
1353 1 0.40467 0.623025 0.353219
136 1 0.551496 0.652961 0.347365
1791 1 0.659938 0.623127 0.338793
1098 1 0.699645 0.662418 0.380035
23 1 0.91919 0.650237 0.340147
1396 1 0.0919016 0.712872 0.341122
763 1 0.168872 0.692036 0.371009
1489 1 0.239815 0.675169 0.373826
1776 1 0.418515 0.712675 0.339851
75 1 0.623094 0.686541 0.335563
1766 1 0.749334 0.696207 0.339974
375 1 0.837284 0.674139 0.356927
602 1 0.897126 0.714245 0.364657
1427 1 0.572829 0.735816 0.358089
101 1 0.776076 0.757313 0.369777
370 1 0.961432 0.741869 0.374418
1866 1 0.0352504 0.776803 0.371695
1130 1 0.104213 0.78293 0.363383
138 1 0.234261 0.79935 0.366969
862 1 0.437832 0.776605 0.353343
1582 1 0.525808 0.789798 0.342628
309 1 0.0475154 0.84409 0.340743
1196 1 0.755973 0.836524 0.355879
1757 1 0.903328 0.810187 0.339572
1238 1 0.381991 0.875037 0.363791
1143 1 0.670732 0.878483 0.379313
2047 1 0.827416 0.894675 0.351353
61 1 0.981015 0.866386 0.367308
1780 1 0.0381283 0.923384 0.376506
1760 1 0.121154 0.908144 0.36552
707 1 0.242955 0.917048 0.365427
1670 1 0.657135 0.951109 0.363125
1479 1 0.716072 0.92396 0.335332
1832 1 0.877499 0.946902 0.35494
279 1 0.0682756 0.985595 0.34031
796 1 0.168772 0.982013 0.359124
117 1 0.38476 0.988362 0.375702
209 1 0.44609 0.956797 0.375756
231 1 0.808603 0.961192 0.349062
442 1 0.946281 0.976328 0.377807
976 1 0.0871286 0.031164 0.412031
450 1 0.217156 0.0313842 0.384443
86 1 0.433034 0.0215189 0.42699
452 1 0.551986 0.0440029 0.399223
674 1 0.660906 0.0262507 0.386879
258 1 0.852154 0.0145218 0.408284
1394 1 0.999278 0.0274376 0.428534
1612 1 0.0265188 0.0944228 0.422272
245 1 0.706986 0.0835912 0.413806
1002 1 0.92707 0.0561218 0.408548
334 1 0.148645 0.101665 0.390784
535 1 0.285574 0.140154 0.426119
1153 1 0.346887 0.107871 0.405972
260 1 0.424797 0.109942 0.401855
18 1 0.549906 0.130208 0.397894
1167 1 0.638409 0.116033 0.420241
448 1 0.787554 0.0984904 0.425489
2039 1 0.108427 0.161946 0.38596
1812 1 0.215117 0.144654 0.420283
1132 1 0.360919 0.188977 0.401006
1329 1 0.441682 0.182852 0.414336
984 1 0.677727 0.169621 0.386777
55 1 0.746102 0.162229 0.410959
1433 1 0.0431558 0.234123 0.413542
1355 1 0.27248 0.21735 0.426754
1187 1 0.522425 0.218372 0.410326
49 1 0.61187 0.20623 0.411068
1572 1 0.118761 0.248668 0.415545
94 1 0.191858 0.270156 0.403553
1326 1 0.334938 0.256181 0.423198
389 1 0.410124 0.265624 0.387029
366 1 0.809469 0.259947 0.416868
1054 1 0.30221 0.329303 0.418355
270 1 0.371781 0.321115 0.423342
347 1 0.614635 0.29547 0.412306
383 1 0.688029 0.32394 0.415368
132 1 0.760849 0.314814 0.416261
1966 1 0.860462 0.331905 0.413447
908 1 0.935424 0.300185 0.398412
714 1 0.00470178 0.370916 0.408917
909 1 0.457717 0.335 0.409906
539 1 0.563036 0.343716 0.399388
1276 1 0.928399 0.377516 0.409838
1618 1 0.141686 0.384805 0.387025
1390 1 0.271837 0.39185 0.39202
1729 1 0.447075 0.427418 0.404051
1188 1 0.676461 0.425264 0.424201
852 1 0.0797872 0.447734 0.398903
957 1 0.16906 0.471292 0.400374
2026 1 0.245565 0.46012 0.412633
1492 1 0.541365 0.4437 0.420196
817 1 0.7783 0.433886 0.400727
1904 1 0.87789 0.436824 0.388434
254 1 0.949726 0.454562 0.402442
1536 1 0.393499 0.483216 0.385815
339 1 0.57054 0.50527 0.391422
1262 1 0.680176 0.521883 0.416759
74 1 0.901233 0.500492 0.384553
914 1 0.229262 0.539422 0.415562
1370 1 0.437576 0.551387 0.388969
888 1 0.500337 0.531612 0.419745
732 1 0.593867 0.567714 0.417448
1521 1 0.791493 0.529896 0.391501
679 1 0.960721 0.534157 0.408611
1473 1 0.30818 0.595104 0.382468
171 1 0.531268 0.618008 0.427759
295 1 0.715952 0.597896 0.403455
1009 1 0.187761 0.631279 0.398183
80 1 0.395591 0.622064 0.423294
456 1 0.85851 0.620975 0.424093
179 1 0.990046 0.633401 0.387527
1068 1 0.0495188 0.6896 0.392597
1994 1 0.435225 0.678097 0.412013
1269 1 0.536314 0.689647 0.4042
234 1 0.787451 0.668795 0.410109
1709 1 0.129456 0.738738 0.409736
1681 1 0.208448 0.739903 0.425872
1241 1 0.309994 0.715773 0.384577
1771 1 0.491778 0.7555 0.413007
1332 1 0.323043 0.791767 0.386198
1099 1 0.600936 0.769707 0.411602
961 1 0.705195 0.763266 0.381079
1622 1 0.84868 0.767217 0.397437
1209 1 0.951004 0.806059 0.406389
351 1 0.170586 0.809598 0.406732
1627 1 0.27012 0.850369 0.406332
1845 1 0.466435 0.842088 0.39779
1280 1 0.535503 0.83864 0.394956
1600 1 0.660624 0.812932 0.41583
1462 1 0.816537 0.840082 0.395132
1751 1 0.0815067 0.866848 0.414192
360 1 0.608977 0.896595 0.404395
1309 1 0.759944 0.903527 0.389234
311 1 0.180824 0.92805 0.411402
26 1 0.330318 0.920542 0.381035
150 1 0.504065 0.909486 0.401282
836 1 0.839696 0.945399 0.416991
765 1 0.931968 0.906608 0.402834
1964 1 0.137426 0.984024 0.423789
1444 1 0.296987 0.984807 0.393004
1556 1 0.58827 0.965656 0.406739