ITEM: TIMESTEP
100000
ITEM: NUMBER OF ATOMS
2048
ITEM: BOX BOUNDS pp pp pp
-5.8178904282971127e+00 5.8178904282971127e+00
-5.8178904282971127e+00 5.8178904282971127e+00
-5.8178904282971127e+00 5.8178904282971127e+00
ITEM: ATOMS id type xs ys zs
7 1 0.193762 0.99899 0.0556337
54 1 0.685916 0.189775 0.00921572
138 1 0.308874 0.566145 0.000678897
15 1 0.430909 0.00761656 0.074709
182 1 0.686505 0.696749 0.00759293
19 1 0.564052 0.993487 0.0588185
23 1 0.68097 0.00687533 0.0607132
114 1 0.564235 0.440864 0.00545649
27 1 0.81653 0.00457083 0.0624782
170 1 0.324332 0.693302 0.00174583
89 1 0.759907 0.246753 0.00300091
543 1 0.93511 0.00469508 0.30614
12 1 0.238102 0.0680494 0.0697858
25 1 0.746627 0.996645 0.00306275
20 1 0.493072 0.059076 0.0577062
24 1 0.622204 0.0732784 0.0620072
55 1 0.692883 0.124181 0.0613808
32 1 0.88225 0.0600544 0.0603953
539 1 0.805995 0.00366229 0.314235
4 1 0.00211436 0.0597512 0.0626229
35 1 0.0585469 0.120214 0.0602932
39 1 0.185349 0.13057 0.057961
43 1 0.30437 0.126257 0.0682864
62 1 0.939697 0.191675 0.00723046
47 1 0.436767 0.116942 0.0627242
174 1 0.445182 0.687748 0.00848081
51 1 0.557972 0.127159 0.0616772
245 1 0.619702 0.876293 0.00173599
59 1 0.804348 0.124699 0.0638015
53 1 0.61753 0.124728 0.0011325
63 1 0.938992 0.125634 0.06074
40 1 0.122026 0.194127 0.0598358
58 1 0.810011 0.185454 0.00281751
44 1 0.256431 0.196526 0.0685777
52 1 0.490506 0.184482 0.0667328
18 1 0.562325 0.061795 0.0100683
56 1 0.624426 0.179452 0.0703662
93 1 0.881113 0.25308 0.00186676
60 1 0.751738 0.191175 0.0691209
64 1 0.869797 0.181546 0.0624999
36 1 0.0022148 0.195435 0.0588365
67 1 0.0581098 0.255716 0.0529024
71 1 0.185821 0.253155 0.0665167
75 1 0.322764 0.256609 0.0586867
535 1 0.678834 0.00536026 0.312674
79 1 0.425374 0.250038 0.061276
83 1 0.571012 0.249505 0.0691867
33 1 -0.000540912 0.124463 0.00131731
87 1 0.687583 0.252886 0.0707831
531 1 0.557744 0.00413678 0.320688
91 1 0.819121 0.253522 0.0566472
95 1 0.94504 0.252408 0.0628599
68 1 0.000732733 0.317426 0.0598216
72 1 0.117175 0.309218 0.0587333
752 1 0.370126 0.93684 0.306634
767 1 0.936934 0.885062 0.303272
80 1 0.380852 0.319795 0.0546408
162 1 0.0685294 0.700974 0.00473621
88 1 0.628895 0.317721 0.0678846
768 1 0.872002 0.939044 0.312345
92 1 0.761391 0.308236 0.0589788
96 1 0.878353 0.313874 0.0655689
253 1 0.881731 0.881944 0.00362188
150 1 0.685783 0.560591 0.00298298
99 1 0.0674223 0.372817 0.0588634
103 1 0.18323 0.368483 0.0601629
107 1 0.313208 0.382624 0.0591329
111 1 0.450048 0.374707 0.0726055
115 1 0.566075 0.381913 0.0658557
119 1 0.69301 0.369889 0.0614412
123 1 0.821357 0.379256 0.0603365
127 1 0.941326 0.383058 0.0592379
100 1 0.00707579 0.436487 0.0529582
764 1 0.74226 0.944342 0.311047
108 1 0.256566 0.44189 0.0617506
760 1 0.619908 0.946282 0.311899
116 1 0.502126 0.441722 0.0670354
120 1 0.626791 0.439343 0.0688928
124 1 0.752634 0.432048 0.0599172
90 1 0.819744 0.318757 0.00146851
128 1 0.87767 0.442502 0.0627893
131 1 0.0652001 0.494432 0.0660078
139 1 0.301892 0.505411 0.0662084
210 1 0.563973 0.811956 0.00387345
147 1 0.563343 0.502776 0.0677849
5 1 0.124224 0.00348306 0.00103551
151 1 0.692244 0.499332 0.0636454
756 1 0.493599 0.93714 0.319061
237 1 0.391748 0.878923 0.00576274
159 1 0.947563 0.496525 0.0547854
132 1 0.998881 0.563326 0.0575234
30 1 0.944404 0.0590714 0.00279935
748 1 0.246748 0.930675 0.314304
140 1 0.244839 0.563625 0.0587335
144 1 0.372638 0.563924 0.0619517
148 1 0.510855 0.563127 0.0677443
692 1 0.512126 0.690976 0.315317
744 1 0.122811 0.933096 0.312084
156 1 0.7495 0.564415 0.0571674
740 1 0.999524 0.937476 0.311024
160 1 0.88447 0.553904 0.0517129
163 1 0.0715743 0.63034 0.0523114
167 1 0.186177 0.624613 0.0528886
763 1 0.813585 0.87524 0.306574
171 1 0.306868 0.622054 0.0635419
175 1 0.447171 0.630485 0.0711965
723 1 0.560425 0.754143 0.306615
105 1 0.256193 0.383082 9.82711e-05
26 1 0.814675 0.0677074 0.0020307
191 1 0.937262 0.622433 0.0593485
190 1 0.948149 0.684206 -0.000249564
168 1 0.136375 0.690396 0.0584901
759 1 0.684841 0.868116 0.310595
172 1 0.247853 0.691626 0.0551227
751 1 0.431815 0.875362 0.311729
719 1 0.426582 0.749612 0.3135
747 1 0.303637 0.868963 0.310084
192 1 0.883571 0.689536 0.0641594
743 1 0.191674 0.864986 0.31442
173 1 0.374981 0.624652 0.00044844
199 1 0.198309 0.753739 0.0538364
203 1 0.322088 0.741397 0.0724399
121 1 0.752622 0.367603 0.00202699
207 1 0.439213 0.747828 0.0667469
755 1 0.554295 0.879308 0.311885
739 1 0.0650063 0.862772 0.304079
234 1 0.312428 0.939561 0.00504436
715 1 0.315259 0.746272 0.313248
223 1 0.941608 0.754808 0.0614929
196 1 0.00380501 0.816426 0.063923
200 1 0.11601 0.815354 0.0604275
204 1 0.260186 0.810293 0.0607787
708 1 0.997791 0.814603 0.317256
208 1 0.372688 0.808047 0.0689974
212 1 0.495737 0.821391 0.0620585
41 1 0.250744 0.135756 0.00605295
711 1 0.182258 0.75028 0.312367
220 1 0.75933 0.818099 0.0691987
728 1 0.615175 0.820424 0.307467
712 1 0.130735 0.811669 0.308193
227 1 0.0688906 0.88049 0.0560491
736 1 0.880389 0.811499 0.310455
231 1 0.186755 0.878499 0.061654
235 1 0.315247 0.879031 0.0598687
6 1 0.189301 0.0646377 0.00497282
239 1 0.441685 0.880366 0.0651068
243 1 0.563286 0.871763 0.0642066
247 1 0.690484 0.877273 0.057148
724 1 0.499315 0.817376 0.308798
251 1 0.816242 0.879447 0.0722677
732 1 0.752959 0.814734 0.311275
232 1 0.128053 0.941338 0.066439
735 1 0.942226 0.750832 0.311718
236 1 0.247769 0.936939 0.0611197
240 1 0.375409 0.940181 0.0646793
727 1 0.691238 0.749808 0.309416
244 1 0.496468 0.946936 0.0677659
248 1 0.625973 0.941204 0.0552667
731 1 0.813593 0.754559 0.311718
720 1 0.371455 0.819713 0.30771
256 1 0.872525 0.940205 0.0592583
228 1 0.0103452 0.935697 0.0581602
716 1 0.252308 0.799937 0.310024
3 1 0.0598449 0.999182 0.0556582
11 1 0.31639 0.00981352 0.0591197
31 1 0.94048 0.998727 0.0641106
265 1 0.240804 0.00379673 0.12513
266 1 0.307991 0.0612259 0.121566
269 1 0.36734 0.00449301 0.130835
277 1 0.628786 0.012285 0.126545
281 1 0.752465 0.996072 0.122253
257 1 0.997687 0.999016 0.131046
258 1 0.0641579 0.0701755 0.124624
8 1 0.12047 0.0569511 0.0588658
262 1 0.176762 0.070312 0.13258
16 1 0.371856 0.0668813 0.0581617
270 1 0.427782 0.0672767 0.138234
274 1 0.559033 0.0662208 0.124249
278 1 0.692542 0.0646801 0.124978
28 1 0.746551 0.0592263 0.0604212
282 1 0.810114 0.0612384 0.11721
286 1 0.938313 0.0677944 0.122015
289 1 0.999747 0.127319 0.126323
293 1 0.131566 0.136162 0.121093
297 1 0.248753 0.127452 0.128387
301 1 0.366511 0.124619 0.125638
305 1 0.505622 0.123636 0.130283
309 1 0.630887 0.12246 0.129969
313 1 0.756524 0.126629 0.126611
317 1 0.872213 0.123158 0.123155
290 1 0.0608795 0.183134 0.121728
294 1 0.188308 0.196445 0.125494
298 1 0.310734 0.18597 0.132222
48 1 0.376338 0.180715 0.0593645
302 1 0.430321 0.182194 0.130268
306 1 0.56669 0.181722 0.134922
310 1 0.690561 0.187118 0.1294
314 1 0.817752 0.185221 0.127657
318 1 0.934925 0.192089 0.120265
321 1 0.0022915 0.252323 0.119849
325 1 0.129862 0.255818 0.129705
329 1 0.249142 0.25913 0.126182
333 1 0.373155 0.240923 0.127305
337 1 0.499164 0.237317 0.128756
341 1 0.627927 0.246979 0.131075
345 1 0.752842 0.248531 0.127646
349 1 0.871713 0.247911 0.131237
326 1 0.188224 0.318613 0.130807
76 1 0.257029 0.321922 0.0613651
330 1 0.31609 0.325514 0.11805
334 1 0.438414 0.30871 0.129028
84 1 0.508881 0.311412 0.062867
338 1 0.568833 0.307974 0.126557
342 1 0.69058 0.313999 0.129715
346 1 0.818966 0.31012 0.122904
350 1 0.942414 0.310006 0.126327
353 1 0.00362979 0.372706 0.130457
357 1 0.121927 0.367325 0.12092
361 1 0.246358 0.382247 0.123031
365 1 0.381655 0.375877 0.12923
369 1 0.506999 0.377838 0.133575
373 1 0.628205 0.379412 0.126791
377 1 0.758208 0.37388 0.126057
381 1 0.880079 0.377121 0.128229
354 1 0.0648408 0.432823 0.124957
104 1 0.127856 0.429807 0.065722
358 1 0.186375 0.43656 0.1262
362 1 0.325181 0.436595 0.123014
112 1 0.389647 0.439271 0.06964
366 1 0.441009 0.433633 0.135256
370 1 0.563514 0.438912 0.134152
374 1 0.692872 0.441704 0.124295
378 1 0.819485 0.44472 0.124893
382 1 0.947133 0.441018 0.126414
389 1 0.126202 0.490821 0.130402
135 1 0.181198 0.502015 0.0674697
393 1 0.246738 0.500223 0.1252
397 1 0.375452 0.509544 0.129147
143 1 0.446526 0.499456 0.0620076
405 1 0.625941 0.499493 0.12796
409 1 0.755205 0.498701 0.124153
155 1 0.817546 0.504336 0.0620487
413 1 0.885969 0.499263 0.124741
385 1 0.00623973 0.499069 0.127284
386 1 0.0560379 0.569892 0.124385
136 1 0.119529 0.556872 0.0578443
390 1 0.188271 0.561862 0.126142
394 1 0.303621 0.568657 0.124044
398 1 0.439148 0.562678 0.129324
402 1 0.563051 0.558117 0.138651
152 1 0.619577 0.562178 0.0726962
406 1 0.693091 0.564408 0.133479
410 1 0.817473 0.556465 0.12631
414 1 0.939221 0.559161 0.114023
421 1 0.125214 0.617532 0.114986
425 1 0.247529 0.626875 0.121815
429 1 0.368861 0.61812 0.12937
433 1 0.504431 0.628217 0.134045
179 1 0.563974 0.624436 0.074553
437 1 0.633348 0.629625 0.132006
183 1 0.69062 0.628544 0.0690685
441 1 0.755554 0.626748 0.129119
187 1 0.819111 0.63389 0.0634886
445 1 0.880699 0.621911 0.121243
417 1 0.99295 0.620976 0.128057
418 1 0.0696532 0.680415 0.126502
422 1 0.18528 0.675344 0.133731
426 1 0.312634 0.680628 0.125376
176 1 0.375598 0.679571 0.0749057
180 1 0.505704 0.692198 0.0668587
434 1 0.568822 0.688963 0.13192
184 1 0.629756 0.692201 0.068138
188 1 0.756436 0.696394 0.0650318
442 1 0.815941 0.682283 0.134033
446 1 0.944206 0.681396 0.122296
164 1 0.0116763 0.68438 0.0639994
449 1 0.9971 0.755633 0.12572
195 1 0.0605403 0.755286 0.065891
453 1 0.138855 0.746996 0.117526
457 1 0.254382 0.742642 0.118644
461 1 0.376302 0.754195 0.128273
465 1 0.503476 0.7512 0.13354
211 1 0.56101 0.755409 0.067418
469 1 0.632201 0.759091 0.126225
215 1 0.699716 0.761771 0.054589
219 1 0.812636 0.758559 0.0531435
477 1 0.882009 0.733604 0.131475
450 1 0.0640239 0.810948 0.127791
454 1 0.18794 0.815034 0.115837
458 1 0.313981 0.812919 0.128833
462 1 0.440429 0.81683 0.123016
466 1 0.559118 0.811336 0.125567
216 1 0.621403 0.811836 0.0641583
470 1 0.693518 0.81604 0.127287
474 1 0.822404 0.799525 0.123322
224 1 0.878234 0.808513 0.0626777
481 1 0.0070597 0.881472 0.125408
485 1 0.126569 0.873794 0.124452
489 1 0.252174 0.87606 0.131451
493 1 0.372226 0.872866 0.124699
497 1 0.500648 0.873928 0.125608
505 1 0.754375 0.876442 0.122783
509 1 0.876337 0.873074 0.122879
255 1 0.938965 0.880874 0.0657497
482 1 0.0627358 0.945491 0.12545
490 1 0.317166 0.937195 0.127708
494 1 0.423758 0.938316 0.129105
501 1 0.623713 0.876576 0.121628
252 1 0.764069 0.940975 0.0615787
510 1 0.936794 0.932364 0.128224
261 1 0.130063 0.00352691 0.121937
486 1 0.187318 0.942409 0.125798
273 1 0.501257 0.00571324 0.133376
498 1 0.57027 0.940046 0.127933
502 1 0.683687 0.940033 0.116887
506 1 0.811819 0.938809 0.129419
285 1 0.871579 0.00245172 0.12274
259 1 0.0614712 0.99763 0.186143
263 1 0.181221 0.00565091 0.186176
267 1 0.305464 0.00323092 0.19269
271 1 0.433033 0.997052 0.187811
276 1 0.497122 0.0604235 0.192371
279 1 0.693057 0.00486804 0.183823
283 1 0.81437 0.00259952 0.185091
287 1 0.932399 0.00459288 0.176709
264 1 0.125892 0.0678934 0.194836
268 1 0.249283 0.0669408 0.183235
272 1 0.367945 0.0610084 0.190544
280 1 0.63023 0.0618382 0.195847
284 1 0.751999 0.0595713 0.186308
288 1 0.871103 0.0635544 0.188757
260 1 0.000446245 0.0668441 0.18164
291 1 0.0605136 0.129493 0.188653
295 1 0.185254 0.128745 0.187919
299 1 0.312997 0.123205 0.187731
303 1 0.436306 0.123052 0.195678
307 1 0.563062 0.117731 0.188955
311 1 0.694026 0.123288 0.187017
315 1 0.814368 0.125917 0.187253
319 1 0.946451 0.132069 0.188224
296 1 0.124017 0.184332 0.187368
300 1 0.254203 0.183503 0.190681
304 1 0.375019 0.189585 0.189304
308 1 0.497585 0.180851 0.191133
312 1 0.628884 0.191956 0.191333
316 1 0.746147 0.190754 0.191738
320 1 0.882245 0.183753 0.184635
292 1 0.996408 0.199458 0.186359
323 1 0.0632888 0.244362 0.183769
327 1 0.190367 0.253618 0.183149
331 1 0.314495 0.249798 0.187033
335 1 0.432541 0.24901 0.190083
339 1 0.561822 0.249936 0.184207
343 1 0.684961 0.252813 0.19608
347 1 0.813367 0.247348 0.190899
351 1 0.935071 0.258194 0.188136
322 1 0.0637724 0.311916 0.122304
328 1 0.128858 0.316875 0.195263
332 1 0.251976 0.31994 0.183914
336 1 0.373994 0.30924 0.180454
340 1 0.500923 0.303586 0.181319
344 1 0.625516 0.30979 0.184333
348 1 0.749353 0.319254 0.186298
352 1 0.877549 0.312126 0.196279
324 1 0.0088413 0.311624 0.188425
355 1 0.0665604 0.372045 0.183456
359 1 0.188166 0.379205 0.191051
363 1 0.316466 0.377103 0.188046
367 1 0.444769 0.374224 0.191919
371 1 0.569603 0.370273 0.186311
375 1 0.687212 0.376194 0.183056
379 1 0.821115 0.371132 0.186038
383 1 0.940143 0.382845 0.190758
356 1 0.00247208 0.44714 0.189335
360 1 0.120435 0.434461 0.191635
364 1 0.251192 0.435932 0.188822
368 1 0.372399 0.440122 0.19553
372 1 0.506198 0.445975 0.197964
376 1 0.62758 0.438926 0.192625
380 1 0.749453 0.428258 0.188529
384 1 0.882077 0.439861 0.189711
387 1 0.0624717 0.503421 0.188662
391 1 0.177615 0.497502 0.194037
395 1 0.306462 0.496019 0.191909
399 1 0.434267 0.497001 0.186628
401 1 0.502535 0.500027 0.128937
403 1 0.572693 0.49871 0.201153
407 1 0.689223 0.494273 0.189547
411 1 0.80647 0.497076 0.1888
415 1 0.939046 0.500726 0.191817
392 1 0.118284 0.564188 0.186434
396 1 0.241064 0.562593 0.191336
400 1 0.38997 0.567406 0.195892
404 1 0.490985 0.558663 0.202637
408 1 0.634682 0.552102 0.196795
412 1 0.749922 0.560337 0.196104
416 1 0.877619 0.558665 0.184648
388 1 0.995032 0.562078 0.190759
419 1 0.0579738 0.62118 0.193687
423 1 0.179073 0.618733 0.190761
427 1 0.316808 0.618988 0.195493
435 1 0.567607 0.626235 0.192547
439 1 0.689532 0.620243 0.190931
443 1 0.816393 0.61967 0.191023
447 1 0.937229 0.635036 0.188236
420 1 0.000853103 0.684905 0.183155
424 1 0.122899 0.691077 0.18797
428 1 0.248049 0.679692 0.190048
432 1 0.377298 0.686933 0.178485
430 1 0.441942 0.69213 0.127146
436 1 0.506159 0.691369 0.193163
440 1 0.631345 0.690656 0.183177
438 1 0.700283 0.68557 0.124717
444 1 0.752468 0.683379 0.189347
448 1 0.871309 0.68128 0.192863
451 1 0.0563777 0.748912 0.181357
455 1 0.191549 0.743851 0.188302
459 1 0.31118 0.740579 0.183279
463 1 0.438695 0.755083 0.182815
467 1 0.565775 0.752187 0.188355
471 1 0.685994 0.762537 0.189707
473 1 0.752895 0.758147 0.127151
475 1 0.811552 0.746466 0.185977
479 1 0.940707 0.746118 0.188223
452 1 0.00108172 0.81327 0.178115
456 1 0.135457 0.811784 0.188661
460 1 0.243575 0.80986 0.178189
464 1 0.373841 0.813071 0.18693
468 1 0.496658 0.815325 0.191749
472 1 0.618291 0.818696 0.189271
476 1 0.761188 0.818055 0.182833
480 1 0.869098 0.810356 0.19489
478 1 0.929656 0.810286 0.131048
483 1 0.0710138 0.880597 0.18014
487 1 0.188368 0.877769 0.185373
491 1 0.308932 0.867979 0.188617
499 1 0.565201 0.878424 0.177408
503 1 0.684499 0.875935 0.18372
507 1 0.817358 0.876527 0.188471
511 1 0.937394 0.877212 0.192932
492 1 0.253424 0.940377 0.189046
496 1 0.369662 0.936924 0.196044
504 1 0.63409 0.943368 0.18781
508 1 0.747667 0.93257 0.184388
512 1 0.876771 0.940406 0.18749
484 1 0.00504706 0.932476 0.187272
488 1 0.130462 0.937592 0.181685
500 1 0.502704 0.937558 0.178529
275 1 0.569904 0.998261 0.193594
513 1 0.00386564 0.994751 0.247653
517 1 0.117682 0.996448 0.247706
521 1 0.248704 0.996163 0.262162
525 1 0.373371 0.000649313 0.254118
529 1 0.490771 0.000785848 0.251611
533 1 0.6285 0.00651166 0.25219
541 1 0.87463 0.00580428 0.246362
514 1 0.059962 0.0668046 0.246352
518 1 0.188782 0.0603776 0.256845
522 1 0.305472 0.0623251 0.252441
526 1 0.430945 0.0613988 0.253247
530 1 0.563597 0.0582418 0.259707
534 1 0.696003 0.0660854 0.251089
538 1 0.80923 0.0672093 0.244026
542 1 0.943019 0.0754356 0.247346
545 1 0.0014481 0.132204 0.255413
549 1 0.126812 0.122036 0.253301
553 1 0.242608 0.12281 0.249692
557 1 0.374259 0.126484 0.252645
561 1 0.502828 0.1215 0.25192
565 1 0.626 0.126604 0.249949
569 1 0.755702 0.12841 0.245267
573 1 0.87938 0.128591 0.251658
546 1 0.0641749 0.188795 0.246602
550 1 0.185882 0.191656 0.25039
554 1 0.312956 0.186979 0.245909
558 1 0.441393 0.187781 0.253626
562 1 0.558434 0.185473 0.247141
566 1 0.690152 0.196081 0.258338
570 1 0.815329 0.18229 0.250748
574 1 0.938375 0.189113 0.24922
581 1 0.121447 0.249302 0.239994
585 1 0.247218 0.244738 0.244938
589 1 0.371573 0.249204 0.247783
593 1 0.505478 0.251243 0.245022
597 1 0.621391 0.249143 0.253064
601 1 0.754316 0.248488 0.252492
605 1 0.879595 0.251097 0.255203
577 1 0.000729029 0.248267 0.252719
578 1 0.0621696 0.309707 0.251732
582 1 0.196416 0.318261 0.245306
586 1 0.309253 0.317143 0.246283
590 1 0.437529 0.309783 0.247393
594 1 0.563247 0.317135 0.250921
598 1 0.688143 0.318414 0.24691
602 1 0.811765 0.311521 0.248321
606 1 0.943698 0.317589 0.249637
613 1 0.117992 0.371731 0.252939
617 1 0.255767 0.378793 0.251318
621 1 0.382247 0.371993 0.240825
625 1 0.500293 0.375954 0.254727
629 1 0.630876 0.378569 0.247374
633 1 0.751647 0.372061 0.249832
637 1 0.878016 0.379201 0.244937
609 1 0.00418616 0.376245 0.250322
610 1 0.0578434 0.440646 0.252292
614 1 0.177335 0.434671 0.249836
618 1 0.311101 0.446383 0.255487
622 1 0.433074 0.440679 0.255905
626 1 0.558362 0.440188 0.259551
630 1 0.692714 0.432407 0.24919
634 1 0.809842 0.436422 0.24841
638 1 0.936034 0.439081 0.254996
645 1 0.123403 0.495887 0.25464
649 1 0.239913 0.498164 0.247406
653 1 0.374164 0.502004 0.248236
657 1 0.502459 0.501352 0.263978
661 1 0.632562 0.494491 0.255482
665 1 0.748945 0.494142 0.256251
669 1 0.874271 0.499422 0.246317
641 1 0.00180445 0.501955 0.251794
642 1 0.0663983 0.556699 0.254062
646 1 0.179774 0.554925 0.253473
650 1 0.302114 0.559818 0.248986
654 1 0.434385 0.554137 0.263129
658 1 0.564199 0.56141 0.256478
662 1 0.691095 0.556312 0.256598
666 1 0.815371 0.555017 0.256483
670 1 0.938459 0.561027 0.26426
677 1 0.120786 0.618504 0.253089
681 1 0.242425 0.618329 0.25225
685 1 0.381852 0.61849 0.262378
431 1 0.445182 0.629729 0.190356
689 1 0.500492 0.624631 0.255363
693 1 0.628717 0.619697 0.250188
697 1 0.75332 0.625782 0.252722
701 1 0.868002 0.621117 0.25686
673 1 0.999268 0.618947 0.252385
674 1 0.054628 0.677996 0.252655
678 1 0.182684 0.682662 0.249763
682 1 0.309258 0.677397 0.25334
686 1 0.438569 0.695391 0.24628
690 1 0.565989 0.691937 0.249075
694 1 0.685719 0.685569 0.242524
698 1 0.815436 0.687716 0.257382
702 1 0.938648 0.686285 0.257236
705 1 0.00203349 0.753163 0.251472
709 1 0.129542 0.750004 0.245731
713 1 0.256857 0.741649 0.249098
717 1 0.364953 0.755338 0.245925
721 1 0.498323 0.760808 0.252386
725 1 0.62478 0.758771 0.243645
729 1 0.747286 0.7496 0.249953
733 1 0.874917 0.75075 0.257158
706 1 0.073431 0.807975 0.237868
710 1 0.194134 0.806063 0.249471
714 1 0.302857 0.803842 0.237935
718 1 0.434405 0.8147 0.253486
722 1 0.559144 0.814156 0.245726
726 1 0.700075 0.81514 0.249558
730 1 0.814252 0.812271 0.251854
734 1 0.939985 0.812491 0.244273
737 1 0.00216248 0.871293 0.244337
741 1 0.125446 0.874901 0.248521
745 1 0.246627 0.877018 0.245387
749 1 0.371091 0.874858 0.247385
495 1 0.427686 0.876007 0.183086
753 1 0.498438 0.873995 0.247409
757 1 0.62658 0.885852 0.253277
761 1 0.747669 0.884537 0.251571
765 1 0.878344 0.879647 0.247347
738 1 0.0657079 0.929338 0.25172
742 1 0.180499 0.936519 0.250917
750 1 0.430791 0.932552 0.248462
758 1 0.690754 0.947049 0.247228
762 1 0.815418 0.942787 0.247997
766 1 0.938495 0.940644 0.243397
746 1 0.305191 0.93641 0.25257
754 1 0.55215 0.941136 0.255241
537 1 0.753451 0.000938733 0.248352
515 1 0.0645311 0.00303114 0.31354
519 1 0.188119 0.998221 0.316927
523 1 0.312632 0.992967 0.314582
527 1 0.429924 0.999549 0.311286
532 1 0.491128 0.0561851 0.316008
540 1 0.745032 0.0680885 0.313851
516 1 1.0002 0.0599695 0.306491
520 1 0.132522 0.0612456 0.316948
524 1 0.250766 0.0710241 0.315036
528 1 0.376821 0.0636679 0.30965
536 1 0.623507 0.071563 0.315057
544 1 0.875177 0.070814 0.308553
547 1 0.0704007 0.117096 0.314742
551 1 0.188268 0.130225 0.311208
555 1 0.314161 0.123717 0.311872
559 1 0.437776 0.120419 0.304787
563 1 0.559228 0.130176 0.314814
567 1 0.686967 0.130156 0.307262
571 1 0.814833 0.122066 0.308724
575 1 0.936227 0.125303 0.318983
548 1 0.0105699 0.193899 0.313357
552 1 0.125591 0.189565 0.305637
556 1 0.252812 0.188784 0.310752
560 1 0.384394 0.183091 0.311559
564 1 0.494711 0.196499 0.31315
568 1 0.624863 0.182404 0.320909
572 1 0.753656 0.187969 0.317692
576 1 0.879874 0.188359 0.307875
579 1 0.0630013 0.252376 0.314513
583 1 0.184926 0.250612 0.306672
587 1 0.313363 0.248451 0.305997
591 1 0.439686 0.259293 0.309089
595 1 0.562981 0.256402 0.310885
599 1 0.684045 0.254419 0.316846
603 1 0.817994 0.24716 0.312464
607 1 0.940288 0.255866 0.309559
584 1 0.124372 0.310543 0.31723
588 1 0.251504 0.299499 0.309107
592 1 0.36876 0.314919 0.302585
596 1 0.505659 0.323179 0.319665
600 1 0.629944 0.318504 0.312883
604 1 0.752357 0.302185 0.324197
608 1 0.876444 0.316511 0.308716
580 1 0.995301 0.313475 0.310997
611 1 0.0606311 0.37665 0.314334
615 1 0.184809 0.376809 0.311457
619 1 0.317792 0.379997 0.301982
623 1 0.434421 0.374284 0.316634
627 1 0.574902 0.377236 0.311958
631 1 0.697393 0.366279 0.313042
635 1 0.810761 0.369613 0.311703
639 1 0.932222 0.378138 0.314246
616 1 0.118725 0.431684 0.316991
620 1 0.246618 0.431982 0.309167
624 1 0.375867 0.436033 0.315162
628 1 0.494338 0.436877 0.315732
632 1 0.630282 0.435233 0.314778
636 1 0.751934 0.428697 0.314133
640 1 0.867432 0.431036 0.316043
612 1 0.999339 0.436095 0.313872
643 1 0.0597934 0.500372 0.310479
647 1 0.185313 0.499389 0.312531
651 1 0.310305 0.503989 0.313758
655 1 0.431051 0.496967 0.321022
659 1 0.566889 0.493074 0.32262
663 1 0.694105 0.491171 0.318235
667 1 0.812183 0.496993 0.310929
671 1 0.923912 0.49627 0.318048
648 1 0.123987 0.554053 0.320252
652 1 0.239161 0.563113 0.31507
656 1 0.376287 0.557633 0.320709
660 1 0.504814 0.554774 0.324827
664 1 0.626179 0.551458 0.323683
668 1 0.752011 0.556469 0.314213
672 1 0.870251 0.560491 0.311166
644 1 0.00589989 0.563065 0.310599
675 1 0.0635336 0.621136 0.312169
679 1 0.178396 0.622679 0.310581
683 1 0.309118 0.614766 0.31665
687 1 0.451432 0.61964 0.320029
691 1 0.574815 0.627225 0.31524
695 1 0.688472 0.618944 0.311844
699 1 0.81255 0.627887 0.318459
703 1 0.942298 0.626254 0.31769
680 1 0.121909 0.687901 0.30582
684 1 0.249434 0.680635 0.306886
688 1 0.375792 0.685609 0.315036
213 1 0.627714 0.756135 0.00177703
696 1 0.620644 0.694561 0.306893
700 1 0.74674 0.68374 0.309037
704 1 0.876626 0.686455 0.316454
676 1 0.000687024 0.688933 0.315218
707 1 0.0609965 0.75312 0.306676
50 1 0.567132 0.195677 0.00506871
218 1 0.823386 0.82213 0.0043709
85 1 0.628968 0.255628 0.0120661
94 1 0.937139 0.31606 0.00684443
178 1 0.565973 0.692593 0.0078782
238 1 0.439931 0.947337 0.00815174
81 1 0.492967 0.24922 0.0095048
125 1 0.882054 0.382911 0.00225979
9 1 0.254002 1.00074 0.00140997
86 1 0.696287 0.306919 0.00580949
142 1 0.440699 0.568155 0.00672323
137 1 0.24339 0.502456 -0.000719843
181 1 0.619711 0.62639 0.00884955
149 1 0.62857 0.502412 0.0105567
42 1 0.314334 0.185105 0.00343768
229 1 0.132227 0.87288 0.00173556
186 1 0.819786 0.691412 0.00444026
113 1 0.499652 0.387384 0.00236062
134 1 0.182424 0.558618 0.00136676
177 1 0.502365 0.627541 0.00938123
133 1 0.118437 0.494706 0.00355463
110 1 0.434561 0.443058 0.00296551
225 1 0.00511954 0.874917 0.00146566
146 1 0.564284 0.56667 0.00529217
153 1 0.75315 0.501552 0.00241147
198 1 0.191758 0.815582 0.00184162
254 1 0.94606 0.940869 0.00368561
777 1 0.249604 0.00321807 0.371426
781 1 0.374988 0.00455413 0.375988
782 1 0.439058 0.0599852 0.380322
786 1 0.565973 0.0622072 0.379733
790 1 0.682498 0.0664691 0.372864
793 1 0.740281 0.00934891 0.370647
770 1 0.0642143 0.0579618 0.377912
774 1 0.185249 0.0615794 0.377244
778 1 0.312023 0.0590114 0.371861
825 1 0.748324 0.126892 0.376259
794 1 0.809759 0.061646 0.371123
798 1 0.937319 0.0586222 0.372517
801 1 0.00346234 0.126956 0.369707
805 1 0.130042 0.126474 0.375411
809 1 0.252027 0.129648 0.377389
813 1 0.3745 0.126494 0.372906
817 1 0.506613 0.13016 0.382493
821 1 0.617928 0.123052 0.378774
822 1 0.683141 0.19312 0.378114
829 1 0.872785 0.123851 0.371627
802 1 0.0671948 0.183146 0.372585
806 1 0.18909 0.189075 0.369618
810 1 0.31618 0.188517 0.370192
814 1 0.445923 0.182043 0.3765
818 1 0.561513 0.194595 0.376619
826 1 0.814188 0.177859 0.377247
830 1 0.943975 0.193751 0.367737
833 1 0.00129884 0.254028 0.37787
837 1 0.126897 0.24738 0.371699
841 1 0.254155 0.244107 0.371277
845 1 0.382579 0.250706 0.377458
849 1 0.501981 0.253621 0.372957
853 1 0.621937 0.250651 0.372429
857 1 0.753296 0.237752 0.382726
861 1 0.881095 0.247899 0.369624
834 1 0.0672736 0.305721 0.381961
838 1 0.190272 0.310497 0.371126
842 1 0.315173 0.309546 0.366142
846 1 0.44684 0.31506 0.379369
850 1 0.565332 0.321753 0.377779
854 1 0.678462 0.310754 0.378438
858 1 0.812765 0.295935 0.386487
862 1 0.939908 0.316231 0.384296
869 1 0.129088 0.374334 0.371181
873 1 0.250281 0.366715 0.366702
877 1 0.369436 0.377135 0.374598
881 1 0.499861 0.382233 0.384384
885 1 0.625369 0.37971 0.376795
889 1 0.754036 0.368466 0.376244
893 1 0.870173 0.370187 0.377729
865 1 0.998371 0.383039 0.380144
866 1 0.060188 0.440579 0.379448
870 1 0.189268 0.438536 0.36927
874 1 0.310136 0.434771 0.365145
878 1 0.426118 0.435392 0.382403
882 1 0.562116 0.435008 0.377907
886 1 0.690914 0.435168 0.382263
890 1 0.813075 0.435502 0.37452
894 1 0.940109 0.442205 0.37928
901 1 0.1245 0.499558 0.382131
905 1 0.249799 0.502451 0.369971
909 1 0.360484 0.506886 0.387495
913 1 0.499371 0.492417 0.381481
917 1 0.6296 0.497213 0.383868
921 1 0.758553 0.496513 0.374352
925 1 0.873046 0.496174 0.383233
897 1 0.00191829 0.496223 0.371573
898 1 0.0618064 0.559478 0.375075
902 1 0.176809 0.566165 0.383357
906 1 0.304986 0.566931 0.383474
910 1 0.442159 0.552759 0.379712
914 1 0.56737 0.5571 0.387921
918 1 0.686691 0.560079 0.377739
922 1 0.809874 0.562662 0.375892
926 1 0.935844 0.563411 0.374581
933 1 0.122997 0.626781 0.370254
937 1 0.236689 0.619307 0.376784
941 1 0.383201 0.624412 0.372334
945 1 0.505442 0.614622 0.383652
949 1 0.629114 0.622248 0.379072
953 1 0.749905 0.622708 0.367436
957 1 0.876308 0.624802 0.380398
929 1 0.998365 0.624922 0.375771
930 1 0.0638142 0.688427 0.369246
934 1 0.180135 0.693571 0.375872
938 1 0.319031 0.681849 0.372945
942 1 0.446056 0.684445 0.373127
946 1 0.563913 0.688218 0.378674
950 1 0.682235 0.683299 0.370118
954 1 0.80444 0.686332 0.370491
958 1 0.936838 0.687283 0.37527
965 1 0.116933 0.754016 0.368409
969 1 0.251448 0.743561 0.369193
973 1 0.371176 0.7494 0.382822
977 1 0.501733 0.745692 0.373671
981 1 0.624367 0.754534 0.373827
985 1 0.744189 0.745168 0.379942
989 1 0.866341 0.742636 0.3749
961 1 0.0017234 0.745535 0.380087
962 1 0.0612368 0.813124 0.372511
966 1 0.185425 0.80491 0.371314
970 1 0.315955 0.810346 0.370615
974 1 0.435696 0.815223 0.382634
978 1 0.560836 0.80966 0.369655
982 1 0.69254 0.8097 0.369681
986 1 0.812623 0.815281 0.371358
990 1 0.940351 0.81122 0.374757
997 1 0.12354 0.872532 0.373601
1001 1 0.246319 0.867879 0.376444
1005 1 0.373441 0.867714 0.37881
1009 1 0.494614 0.868768 0.373279
1013 1 0.623329 0.873476 0.370118
1017 1 0.753682 0.870844 0.368741
1021 1 0.877236 0.873655 0.369123
993 1 0.992783 0.874101 0.372849
994 1 0.0569307 0.940796 0.37066
998 1 0.180293 0.93417 0.371744
1002 1 0.317405 0.929263 0.370791
1006 1 0.430788 0.934096 0.379004
1010 1 0.558559 0.940825 0.381595
1022 1 0.937162 0.938212 0.370119
769 1 0.994105 0.994777 0.376182
773 1 0.125184 -0.00014384 0.375907
785 1 0.494933 0.99579 0.380984
789 1 0.630053 0.997615 0.378359
1014 1 0.683582 0.93411 0.367601
1018 1 0.811546 0.937087 0.37484
797 1 0.873237 1.0009 0.372963
775 1 0.186646 0.996787 0.431237
780 1 0.25272 0.0637738 0.437004
784 1 0.376166 0.0635986 0.431279
788 1 0.500834 0.0665071 0.438812
791 1 0.688039 0.99909 0.437065
795 1 0.808662 0.999656 0.427275
799 1 0.934926 0.998316 0.435668
776 1 0.126816 0.0696868 0.431574
819 1 0.563633 0.118332 0.443291
792 1 0.629048 0.0560276 0.43604
796 1 0.74232 0.0644843 0.435099
800 1 0.882977 0.058275 0.434049
772 1 0.993668 0.0549789 0.439795
803 1 0.0575166 0.122627 0.433164
807 1 0.18678 0.130352 0.436373
811 1 0.318566 0.127762 0.438673
815 1 0.440539 0.127598 0.439616
823 1 0.684549 0.128622 0.432756
827 1 0.817334 0.115464 0.435024
831 1 0.93945 0.121416 0.429881
804 1 0.000135989 0.182769 0.426892
808 1 0.125084 0.1865 0.433697
812 1 0.249071 0.194089 0.440175
816 1 0.378762 0.184046 0.435574
820 1 0.498302 0.184462 0.444187
824 1 0.621667 0.183826 0.434216
828 1 0.757189 0.177809 0.448501
832 1 0.882743 0.187032 0.424635
835 1 0.0606043 0.24348 0.438056
839 1 0.179326 0.249021 0.434524
843 1 0.316599 0.248587 0.43461
847 1 0.440922 0.244948 0.439811
851 1 0.557572 0.24554 0.438172
855 1 0.683527 0.251826 0.434489
859 1 0.81484 0.233932 0.442888
863 1 0.939749 0.248077 0.43499
836 1 0.00431278 0.311446 0.43886
840 1 0.131373 0.312973 0.442925
844 1 0.250847 0.310728 0.432968
848 1 0.369936 0.313944 0.432487
852 1 0.498631 0.308214 0.449288
856 1 0.623512 0.314586 0.437429
860 1 0.74515 0.305229 0.437259
864 1 0.874586 0.312568 0.439286
867 1 0.0638916 0.372342 0.434585
871 1 0.195987 0.372134 0.428998
875 1 0.31006 0.374998 0.4263
879 1 0.437951 0.371582 0.441117
883 1 0.559701 0.376292 0.44386
887 1 0.689256 0.376369 0.442765
891 1 0.81593 0.36916 0.440786
895 1 0.930363 0.376983 0.447659
872 1 0.129137 0.429805 0.439508
876 1 0.25719 0.43659 0.430453
880 1 0.354428 0.439037 0.440299
884 1 0.497581 0.436983 0.448268
888 1 0.622407 0.431136 0.443529
892 1 0.754881 0.430694 0.434141
896 1 0.871599 0.43601 0.44136
868 1 0.997133 0.434506 0.447018
899 1 0.059268 0.500577 0.439949
903 1 0.18962 0.499959 0.444144
907 1 0.30191 0.504718 0.443179
911 1 0.430901 0.494658 0.448227
915 1 0.564773 0.489925 0.439279
919 1 0.69328 0.497041 0.435457
923 1 0.813712 0.504596 0.439014
927 1 0.942841 0.498046 0.446372
904 1 0.121345 0.557133 0.442024
908 1 0.242359 0.565978 0.439992