ITEM: TIMESTEP
100000
ITEM: NUMBER OF ATOMS
2048
ITEM: BOX BOUNDS pp pp pp
-5.6759336478815348e+00 5.6759336478815348e+00
-5.6759336478815348e+00 5.6759336478815348e+00
-5.6759336478815348e+00 5.6759336478815348e+00
ITEM: ATOMS id type xs ys zs
531 1 0.556889 0.00224778 0.314882
27 1 0.80951 0.993801 0.0609129
4 1 0.99709 0.0565498 0.0709622
527 1 0.434712 0.000867163 0.311707
8 1 0.12573 0.0604282 0.0590689
12 1 0.254392 0.0574015 0.0621234
16 1 0.370827 0.0673697 0.0668088
20 1 0.498824 0.0631608 0.0624808
24 1 0.625317 0.0622009 0.0634267
178 1 0.559891 0.681972 0.00305006
28 1 0.751222 0.0679475 0.0619156
149 1 0.629877 0.501189 0.00521537
32 1 0.873913 0.0672266 0.0628724
748 1 0.253481 0.938239 0.311319
35 1 0.0623249 0.133719 0.0657916
214 1 0.685754 0.810146 0.00341637
245 1 0.625686 0.870556 -0.00241352
43 1 0.309612 0.120285 0.0587635
89 1 0.75533 0.252659 -0.00355981
47 1 0.43439 0.123578 0.0602725
51 1 0.562791 0.123987 0.0594394
519 1 0.19045 -0.00166478 0.30787
59 1 0.812404 0.12629 0.0654358
70 1 0.186161 0.314651 -0.002993
63 1 0.93562 0.123938 0.0641074
221 1 0.876079 0.742945 0.00572339
40 1 0.128277 0.189503 0.0575171
202 1 0.320663 0.814836 5.67474e-05
33 1 0.999344 0.123524 0.0065476
48 1 0.362187 0.189097 0.0562744
52 1 0.49867 0.185368 0.057533
56 1 0.629102 0.182912 0.0604882
60 1 0.753575 0.192327 0.0591604
64 1 0.875507 0.186291 0.0659602
36 1 0.995395 0.188683 0.0590692
67 1 0.065638 0.255689 0.0627468
181 1 0.628013 0.625385 0.00547508
71 1 0.189524 0.253802 0.0596991
768 1 0.876416 0.938325 0.312074
79 1 0.438218 0.248198 0.0620112
83 1 0.562101 0.244314 0.0636201
130 1 0.0624439 0.565054 0.00674732
87 1 0.687145 0.246153 0.0638307
764 1 0.754989 0.936303 0.317689
91 1 0.816521 0.250792 0.0679624
95 1 0.93696 0.248724 0.0623727
760 1 0.622069 0.939174 0.307573
72 1 0.122404 0.317391 0.0659085
74 1 0.314141 0.309137 -0.00208501
76 1 0.251076 0.315505 0.0597253
756 1 0.498682 0.938695 0.313273
80 1 0.375544 0.310631 0.065012
752 1 0.373854 0.936761 0.308251
84 1 0.49861 0.311591 0.0603877
744 1 0.116885 0.939241 0.315444
88 1 0.623776 0.311485 0.0608488
740 1 0.00527425 0.930348 0.310564
92 1 0.752631 0.311598 0.0656134
767 1 0.945498 0.872251 0.314247
96 1 0.873185 0.315141 0.0615824
68 1 0.00283957 0.313814 0.0635384
99 1 0.0650941 0.378589 0.0617102
103 1 0.189861 0.379372 0.0642405
107 1 0.312194 0.37441 0.0557905
111 1 0.437295 0.381297 0.057099
763 1 0.813043 0.871074 0.31625
115 1 0.566081 0.375965 0.06416
732 1 0.753464 0.815042 0.316353
119 1 0.688207 0.373228 0.0612227
10 1 0.310942 0.0553681 -0.00217277
123 1 0.810918 0.377702 0.064529
127 1 0.932447 0.377355 0.0625258
104 1 0.12665 0.440588 0.0628723
108 1 0.253785 0.435902 0.0562832
112 1 0.371659 0.440015 0.0568173
116 1 0.498517 0.439283 0.0586608
117 1 0.625799 0.36933 0.00245949
120 1 0.623181 0.437461 0.0604967
759 1 0.687996 0.873705 0.315276
124 1 0.746185 0.438859 0.0513914
218 1 0.815026 0.813101 0.000889802
128 1 0.872101 0.443151 0.0624156
100 1 0.995676 0.437656 0.0639862
131 1 0.058523 0.502506 0.0684976
135 1 0.191112 0.495494 0.0602366
139 1 0.308912 0.500234 0.0610496
755 1 0.559731 0.874636 0.306693
143 1 0.43534 0.503426 0.06344
69 1 0.124109 0.254454 -0.00217842
147 1 0.560395 0.504165 0.0581216
751 1 0.436044 0.868746 0.313438
151 1 0.69267 0.497012 0.0632092
155 1 0.808529 0.500974 0.0585151
159 1 0.934402 0.505637 0.0633946
747 1 0.309333 0.876824 0.309961
132 1 0.99565 0.562181 0.0677
136 1 0.126131 0.554106 0.0617799
140 1 0.250942 0.560402 0.0644951
144 1 0.376361 0.562215 0.0610387
743 1 0.190935 0.88122 0.310975
148 1 0.498791 0.562385 0.0597731
152 1 0.630252 0.561378 0.0654574
739 1 0.0623991 0.871811 0.310514
156 1 0.752007 0.558344 0.0651147
160 1 0.869209 0.564883 0.0623727
736 1 0.877647 0.808665 0.312584
163 1 0.0614997 0.62334 0.06955
167 1 0.193282 0.621687 0.060481
171 1 0.310516 0.629442 0.0629496
177 1 0.495534 0.628673 0.00135883
175 1 0.433519 0.621971 0.0579479
179 1 0.563533 0.625767 0.0641515
728 1 0.622687 0.814653 0.308991
183 1 0.691441 0.630785 0.0668599
126 1 0.936962 0.440795 0.00532636
187 1 0.817645 0.630233 0.0654667
191 1 0.933484 0.624614 0.0696662
164 1 0.00336468 0.68605 0.0673647
168 1 0.128953 0.68499 0.0608282
172 1 0.250416 0.688988 0.0637127
176 1 0.376672 0.683315 0.0632665
724 1 0.497018 0.810314 0.311361
180 1 0.496569 0.684684 0.0617909
720 1 0.377646 0.81168 0.316909
184 1 0.622806 0.683398 0.0650036
118 1 0.681138 0.433706 -0.00158079
188 1 0.751658 0.690802 0.0565712
192 1 0.876474 0.695366 0.071604
253 1 0.875217 0.871806 0.00335252
195 1 0.0680398 0.749149 0.0637895
54 1 0.688147 0.181738 -0.00314926
199 1 0.185787 0.750329 0.0628007
203 1 0.31612 0.748377 0.0622013
207 1 0.433567 0.747887 0.0637717
211 1 0.556103 0.748902 0.0564178
215 1 0.686081 0.744898 0.06448
219 1 0.811568 0.750646 0.0634936
223 1 0.940129 0.748417 0.0638116
196 1 0.00766717 0.812611 0.0643384
200 1 0.126405 0.817368 0.0583861
716 1 0.257245 0.811408 0.306776
204 1 0.248049 0.813183 0.0640421
208 1 0.378832 0.814282 0.0613915
712 1 0.126654 0.813996 0.305453
212 1 0.492234 0.808005 0.0551967
216 1 0.619424 0.806591 0.0557336
174 1 0.433341 0.692059 0.00151939
220 1 0.749342 0.809968 0.0611876
224 1 0.874126 0.812382 0.063042
161 1 0.00165796 0.624579 0.00693346
231 1 0.190067 0.877045 0.0607358
14 1 0.431287 0.0657759 0.00515403
235 1 0.31563 0.871149 0.0616944
239 1 0.438996 0.881813 0.0592027
247 1 0.688978 0.871033 0.0604853
708 1 0.00199331 0.81135 0.316606
251 1 0.815332 0.876534 0.05867
255 1 0.938433 0.881261 0.0636224
228 1 0.00201416 0.943391 0.0629846
232 1 0.125968 0.945776 0.0544987
236 1 0.253915 0.941401 0.0608125
240 1 0.378564 0.934802 0.0625077
244 1 0.499125 0.944115 0.0623178
243 1 0.562313 0.876595 0.0574042
85 1 0.6256 0.23882 9.68665e-05
252 1 0.748887 0.935113 0.0674301
735 1 0.938363 0.751048 0.315717
256 1 0.872938 0.939064 0.0637959
731 1 0.818313 0.750342 0.315002
3 1 0.0667317 0.00016467 0.065782
7 1 0.193634 0.00114113 0.0631004
11 1 0.313666 1.00057 0.0659252
727 1 0.685018 0.754089 0.315814
15 1 0.434359 0.000280603 0.0638214
19 1 0.56188 0.0073068 0.0675396
248 1 0.624544 0.934412 0.0608987
31 1 0.935278 0.999437 0.0619626
265 1 0.24972 1.00179 0.125021
273 1 0.496093 0.00298133 0.121195
274 1 0.56334 0.0684819 0.129941
277 1 0.63175 0.999569 0.124618
23 1 0.693882 0.000937681 0.0663428
281 1 0.755674 0.992349 0.126802
257 1 0.996016 0.995096 0.12425
258 1 0.0628086 0.0640827 0.131579
262 1 0.190223 0.0616707 0.12909
266 1 0.311064 0.0637659 0.124383
270 1 0.437547 0.0652995 0.121638
278 1 0.690298 0.0631125 0.12298
282 1 0.816821 0.0679557 0.127971
286 1 0.939176 0.0673694 0.128776
289 1 0.999082 0.132839 0.126424
293 1 0.124696 0.121929 0.12012
39 1 0.181668 0.119503 0.0620967
297 1 0.249764 0.121686 0.126186
301 1 0.367781 0.127781 0.127605
305 1 0.500672 0.127204 0.119307
309 1 0.628601 0.129134 0.126328
55 1 0.693122 0.127697 0.0632924
313 1 0.75266 0.127956 0.124241
317 1 0.876652 0.123104 0.130268
290 1 0.0654287 0.193855 0.127324
294 1 0.191754 0.177468 0.123821
44 1 0.249015 0.185756 0.0616806
298 1 0.311171 0.186486 0.127488
302 1 0.437992 0.183093 0.125074
306 1 0.563021 0.181848 0.123799
310 1 0.694115 0.186636 0.129691
314 1 0.816044 0.186559 0.127029
318 1 0.940144 0.190324 0.123867
325 1 0.133047 0.25474 0.124917
329 1 0.244211 0.245303 0.129296
75 1 0.304975 0.250943 0.0679021
333 1 0.376458 0.246879 0.12643
337 1 0.497678 0.250729 0.126857
341 1 0.626419 0.249479 0.124814
345 1 0.754025 0.251616 0.124498
349 1 0.879615 0.249223 0.12502
321 1 -0.00268506 0.253021 0.124963
322 1 0.0581782 0.311286 0.126286
326 1 0.196921 0.313132 0.123876
330 1 0.309299 0.319619 0.121587
334 1 0.442595 0.320687 0.120856
338 1 0.56241 0.31202 0.121143
342 1 0.68235 0.310821 0.118854
346 1 0.813269 0.319213 0.127702
350 1 0.939397 0.318763 0.123274
357 1 0.124071 0.368658 0.128469
361 1 0.251248 0.380992 0.1238
365 1 0.374186 0.377279 0.123702
369 1 0.501572 0.380223 0.118135
373 1 0.620533 0.374023 0.123545
377 1 0.749528 0.377655 0.12702
381 1 0.875548 0.377399 0.122942
353 1 0.00358057 0.374989 0.123718
354 1 0.0687244 0.437929 0.125072
358 1 0.188733 0.439365 0.129434
362 1 0.311456 0.443774 0.124233
366 1 0.433841 0.438625 0.121924
370 1 0.559382 0.440007 0.118938
374 1 0.686283 0.438034 0.126934
378 1 0.813751 0.449198 0.126284
382 1 0.933247 0.443165 0.123531
389 1 0.127872 0.501389 0.133107
393 1 0.252233 0.503015 0.126986
397 1 0.371235 0.50198 0.123851
401 1 0.494635 0.498259 0.123177
405 1 0.626059 0.498508 0.116969
409 1 0.747489 0.503461 0.126606
413 1 0.871219 0.512845 0.1255
385 1 0.999906 0.497699 0.125111
386 1 0.0645242 0.565468 0.129344
390 1 0.185234 0.559647 0.129238
394 1 0.314783 0.563036 0.120982
398 1 0.436357 0.562312 0.120287
402 1 0.564542 0.563243 0.121469
406 1 0.695012 0.572711 0.126554
410 1 0.811349 0.571344 0.127777
414 1 0.940203 0.561713 0.128868
417 1 -0.00154129 0.627928 0.125126
421 1 0.125605 0.621971 0.129226
425 1 0.252239 0.625886 0.12257
429 1 0.37328 0.619399 0.129117
433 1 0.497563 0.619085 0.118347
437 1 0.629538 0.625832 0.130383
441 1 0.752832 0.632134 0.12334
445 1 0.877208 0.630218 0.132064
418 1 0.0612265 0.6901 0.126495
422 1 0.187242 0.688126 0.12673
426 1 0.312175 0.690749 0.128099
430 1 0.434812 0.690875 0.122737
434 1 0.564446 0.690893 0.126799
438 1 0.68696 0.687239 0.128101
442 1 0.815975 0.687347 0.127496
446 1 0.936568 0.6938 0.127434
453 1 0.127897 0.746374 0.125028
457 1 0.250452 0.753353 0.125201
461 1 0.371596 0.753998 0.126467
465 1 0.499601 0.749257 0.119375
469 1 0.622185 0.752765 0.123676
473 1 0.749728 0.752736 0.128621
477 1 0.871358 0.757061 0.129335
449 1 0.00578882 0.754663 0.128538
450 1 0.0696208 0.808663 0.127943
454 1 0.189936 0.816825 0.126835
458 1 0.309948 0.81362 0.120928
462 1 0.439682 0.811792 0.121978
466 1 0.561092 0.81636 0.118216
470 1 0.688652 0.810791 0.12456
474 1 0.810657 0.817031 0.122888
478 1 0.935998 0.80997 0.131921
227 1 0.0639324 0.876054 0.0596647
485 1 0.126936 0.871002 0.124702
489 1 0.253149 0.879832 0.117372
493 1 0.380079 0.872224 0.120893
497 1 0.49891 0.877382 0.126535
501 1 0.629362 0.875648 0.124566
505 1 0.743657 0.873363 0.123954
509 1 0.877137 0.871654 0.123764
481 1 0.00414016 0.87502 0.122559
482 1 0.0650445 0.944177 0.122293
490 1 0.317283 0.935669 0.122751
494 1 0.437017 0.93695 0.122886
506 1 0.819077 0.936561 0.124809
510 1 0.92986 0.943404 0.124519
261 1 0.13398 0.994571 0.127899
486 1 0.186818 0.93423 0.121046
269 1 0.374938 0.00114188 0.126293
498 1 0.562006 0.930488 0.13265
502 1 0.688881 0.937908 0.127059
285 1 0.873187 0.00526898 0.125601
263 1 0.19159 -0.000150749 0.194354
271 1 0.44177 0.000760998 0.186996
280 1 0.627217 0.0630797 0.187364
279 1 0.69263 0.997791 0.184575
287 1 0.940804 1.00044 0.190011
264 1 0.126856 0.0627372 0.186066
268 1 0.251337 0.0619992 0.18465
272 1 0.374605 0.0646198 0.187679
303 1 0.438987 0.122924 0.189462
276 1 0.501976 0.0636477 0.181886
284 1 0.753318 0.0644001 0.1795
288 1 0.87131 0.061178 0.187812
260 1 1.0002 0.060996 0.189654
291 1 0.0568036 0.127742 0.191213
295 1 0.193985 0.124418 0.188282
299 1 0.313753 0.12429 0.192465
307 1 0.56183 0.127822 0.191307
311 1 0.685108 0.123091 0.187582
315 1 0.812469 0.130394 0.186519
319 1 0.938995 0.126106 0.190114
296 1 0.123417 0.183801 0.188651
300 1 0.248557 0.186022 0.191097
304 1 0.381647 0.190964 0.194007
308 1 0.498256 0.182909 0.184066
312 1 0.618678 0.189101 0.187721
316 1 0.751527 0.187826 0.191366
320 1 0.87541 0.184709 0.190559
292 1 0.996826 0.192144 0.185106
323 1 0.0605429 0.250752 0.188129
327 1 0.188947 0.246909 0.186719
331 1 0.319112 0.251012 0.186262
335 1 0.435014 0.250423 0.191082
339 1 0.556712 0.248065 0.187434
343 1 0.688142 0.252995 0.18535
347 1 0.818857 0.254281 0.184754
351 1 0.940148 0.258604 0.185234
328 1 0.124782 0.312628 0.190333
332 1 0.252348 0.310032 0.182851
336 1 0.381639 0.312801 0.187009
340 1 0.501479 0.312324 0.185084
344 1 0.623587 0.311704 0.184831
348 1 0.748166 0.314706 0.182718
352 1 0.877572 0.316149 0.185554
324 1 0.999533 0.315729 0.18812
355 1 0.0603396 0.375464 0.189786
359 1 0.192294 0.379566 0.188695
363 1 0.313763 0.379796 0.185342
367 1 0.438312 0.377204 0.184738
371 1 0.562964 0.375102 0.185677
375 1 0.684747 0.372363 0.181417
379 1 0.820772 0.381914 0.187479
383 1 0.938347 0.37807 0.184529
360 1 0.125503 0.436896 0.188264
364 1 0.2533 0.439398 0.188821
368 1 0.377053 0.434214 0.191439
372 1 0.497052 0.435296 0.180468
376 1 0.622321 0.439884 0.185522
380 1 0.746674 0.441042 0.187108
384 1 0.875001 0.446456 0.185758
356 1 0.00237105 0.436105 0.186379
387 1 0.0594431 0.504814 0.186999
391 1 0.186176 0.49388 0.194394
395 1 0.311931 0.502166 0.190805
399 1 0.436061 0.499486 0.1824
403 1 0.564646 0.502262 0.177358
407 1 0.688841 0.505685 0.191856
411 1 0.812608 0.510871 0.189895
415 1 0.940725 0.507109 0.191965
388 1 0.00165755 0.567688 0.190608
392 1 0.125515 0.562396 0.194305
396 1 0.246741 0.556076 0.187887
400 1 0.374336 0.560705 0.192756
404 1 0.501937 0.563861 0.180217
408 1 0.621043 0.558172 0.1834
412 1 0.751971 0.566237 0.186558
416 1 0.878445 0.570938 0.188389
419 1 0.0642809 0.625072 0.18979
423 1 0.191858 0.624674 0.191827
427 1 0.308257 0.623905 0.188743
431 1 0.437438 0.622302 0.189071
435 1 0.562411 0.624459 0.185226
439 1 0.688462 0.628561 0.192787
443 1 0.80835 0.628454 0.186242
447 1 0.940184 0.627455 0.187779
420 1 0.998972 0.687893 0.185675
424 1 0.124735 0.684548 0.185973
428 1 0.250937 0.689587 0.183928
432 1 0.378547 0.687575 0.185746
436 1 0.501856 0.687006 0.18383
440 1 0.620727 0.690566 0.189273
444 1 0.750174 0.687958 0.191133
448 1 0.880155 0.695981 0.187361
451 1 0.0674392 0.747904 0.186969
455 1 0.186841 0.745982 0.189375
459 1 0.310529 0.755649 0.184417
463 1 0.437533 0.752795 0.182903
467 1 0.561674 0.754259 0.185425
471 1 0.687226 0.746334 0.185184
475 1 0.809438 0.751421 0.188857
479 1 0.941674 0.752293 0.189335
452 1 0.000810398 0.814577 0.186448
456 1 0.129609 0.811258 0.189899
460 1 0.250832 0.814046 0.187156
464 1 0.372588 0.811843 0.185064
468 1 0.500098 0.814671 0.18098
472 1 0.62796 0.811158 0.185787
476 1 0.752428 0.812875 0.191556
480 1 0.878275 0.809473 0.190775
483 1 0.0679903 0.873877 0.183941
487 1 0.187839 0.874708 0.187446
491 1 0.312768 0.875654 0.188851
495 1 0.440059 0.872707 0.18827
499 1 0.566493 0.867673 0.188264
503 1 0.688526 0.872799 0.190709
511 1 0.943618 0.879158 0.181381
492 1 0.248059 0.940789 0.186532
496 1 0.376852 0.937173 0.183822
500 1 0.499057 0.936523 0.189364
504 1 0.625949 0.935751 0.186596
508 1 0.748786 0.932597 0.184267
507 1 0.817324 0.871198 0.188515
512 1 0.872999 0.935899 0.191528
484 1 0.00119485 0.936974 0.186258
259 1 0.0657901 0.997803 0.189666
488 1 0.127231 0.937626 0.190745
267 1 0.308417 0.999877 0.184384
275 1 0.570859 0.995841 0.18474
283 1 0.811221 0.994777 0.189913
517 1 0.122726 0.992228 0.255672
518 1 0.192499 0.0623725 0.245977
529 1 0.500608 -0.00205344 0.249339
541 1 0.871618 0.00107206 0.251138
514 1 0.0675192 0.0625026 0.247371
522 1 0.318011 0.0664136 0.248842
526 1 0.440048 0.0603586 0.249318
530 1 0.566268 0.0543496 0.25253
534 1 0.697958 0.0640235 0.245743
538 1 0.80938 0.0669557 0.252358
542 1 0.939031 0.0608547 0.253327
549 1 0.130083 0.123156 0.253002
553 1 0.249461 0.119477 0.252958
557 1 0.379646 0.125623 0.250947
561 1 0.497958 0.127861 0.251675
565 1 0.626658 0.123149 0.247476
569 1 0.75365 0.124102 0.252028
573 1 0.877004 0.123023 0.250817
545 1 0.997315 0.124466 0.253604
546 1 0.0578916 0.183827 0.255428
550 1 0.184909 0.185855 0.248768
554 1 0.320049 0.190959 0.249089
558 1 0.446438 0.191576 0.249637
562 1 0.565403 0.186649 0.249947
566 1 0.684173 0.185147 0.24286
570 1 0.812221 0.190738 0.252441
574 1 0.937178 0.192428 0.249245
581 1 0.124355 0.24818 0.244512
585 1 0.2538 0.251319 0.246215
589 1 0.377731 0.254145 0.251015
593 1 0.498466 0.255483 0.25494
597 1 0.622761 0.248418 0.247111
601 1 0.757127 0.252827 0.241662
605 1 0.874274 0.250206 0.247349
577 1 1.00317 0.249856 0.251163
578 1 0.0613315 0.311902 0.248979
582 1 0.190189 0.313767 0.244319
586 1 0.317801 0.311131 0.24849
590 1 0.440678 0.316129 0.251852
594 1 0.563863 0.313858 0.250546
598 1 0.686618 0.312743 0.245464
602 1 0.811527 0.319344 0.244742
606 1 0.941304 0.318641 0.249245
613 1 0.121562 0.376352 0.250972
617 1 0.251647 0.370026 0.245755
621 1 0.376663 0.369179 0.248397
625 1 0.499783 0.375031 0.242044
629 1 0.62641 0.377385 0.246732
633 1 0.745514 0.373142 0.242006
637 1 0.878211 0.369757 0.244816
609 1 0.00422249 0.374813 0.251677
610 1 0.0617391 0.435268 0.250509
614 1 0.190874 0.431023 0.254396
618 1 0.31297 0.436931 0.251955
622 1 0.440139 0.44672 0.251588
626 1 0.564732 0.440702 0.247634
630 1 0.687253 0.435816 0.252852
634 1 0.811605 0.446513 0.242931
638 1 0.941087 0.437899 0.251883
641 1 0.00351934 0.498402 0.253679
645 1 0.123228 0.498292 0.252459
649 1 0.25062 0.494982 0.254014
653 1 0.377705 0.496307 0.253724
657 1 0.503259 0.501293 0.236795
661 1 0.622319 0.501609 0.243715
665 1 0.753312 0.507662 0.251025
669 1 0.876508 0.506213 0.248028
642 1 0.0647898 0.557997 0.252824
646 1 0.192896 0.556708 0.252358
650 1 0.314155 0.565979 0.249411
654 1 0.435864 0.554397 0.248675
658 1 0.558887 0.568019 0.248164
662 1 0.688126 0.564592 0.252594
666 1 0.812258 0.567692 0.252237
670 1 0.938672 0.56988 0.249
673 1 0.0062584 0.630376 0.24984
677 1 0.126467 0.623746 0.253599
681 1 0.251034 0.627074 0.251914
685 1 0.372784 0.627671 0.247349
689 1 0.494465 0.620875 0.257253
693 1 0.625434 0.625505 0.246767
697 1 0.74693 0.627327 0.256604
701 1 0.877874 0.627195 0.250897
674 1 0.0671525 0.69041 0.246228
678 1 0.190491 0.687801 0.251226
682 1 0.311833 0.685271 0.250267
686 1 0.439424 0.690673 0.245992
690 1 0.559012 0.687773 0.248403
694 1 0.680425 0.69065 0.249489
698 1 0.810044 0.68695 0.248668
702 1 0.939981 0.689149 0.251876
709 1 0.124868 0.749779 0.249378
713 1 0.250753 0.7515 0.246331
717 1 0.369557 0.74894 0.245733
721 1 0.500216 0.749041 0.250992
725 1 0.623714 0.750204 0.250448
729 1 0.750195 0.755346 0.254253
733 1 0.877888 0.749518 0.249652
705 1 1.00168 0.753729 0.246465
706 1 0.0628412 0.813796 0.251625
710 1 0.194019 0.809695 0.246413
714 1 0.313074 0.81488 0.24815
718 1 0.437053 0.812316 0.246987
722 1 0.563063 0.809701 0.251291
726 1 0.692167 0.813667 0.256499
730 1 0.817078 0.811088 0.253044
734 1 0.9451 0.815266 0.250465
737 1 0.00265193 0.875515 0.249848
741 1 0.130171 0.87757 0.251925
745 1 0.25033 0.880015 0.24305
749 1 0.376169 0.87336 0.249917
753 1 0.495651 0.873423 0.247426
757 1 0.625421 0.872136 0.248197
761 1 0.752351 0.87725 0.249764
765 1 0.872156 0.871927 0.254061
738 1 0.0654584 0.93189 0.249518
742 1 0.18614 0.937321 0.250759
746 1 0.315296 0.936784 0.251621
754 1 0.560186 0.929693 0.246948
758 1 0.685606 0.932437 0.247189
762 1 0.81234 0.936793 0.252322
766 1 0.941481 0.934272 0.244335
521 1 0.251027 0.000785672 0.250107
525 1 0.376133 0.00231482 0.244468
750 1 0.432685 0.933626 0.246561
533 1 0.628526 0.994369 0.247451
537 1 0.74981 0.993769 0.256762
513 1 0.00214401 0.995657 0.252086
515 1 0.0614804 0.004443 0.318473
523 1 0.312363 0.00327252 0.312883
536 1 0.625935 0.0600605 0.311683
535 1 0.685731 -0.000225865 0.314408
539 1 0.817503 0.00478641 0.309982
543 1 0.936777 0.999123 0.311443
516 1 -0.000143883 0.0604934 0.311734
520 1 0.126242 0.0562859 0.315139
524 1 0.249802 0.0604125 0.313175
528 1 0.378905 0.0640406 0.308128
532 1 0.503246 0.068694 0.309395
540 1 0.747139 0.0620527 0.313102
544 1 0.877033 0.0644417 0.309341
547 1 0.0675483 0.120376 0.313584
551 1 0.189241 0.118872 0.31394
555 1 0.313041 0.124451 0.309844
559 1 0.437066 0.126954 0.317028
563 1 0.565614 0.122799 0.311559
567 1 0.692286 0.129082 0.31171
571 1 0.811293 0.128671 0.311213
575 1 0.937083 0.132705 0.318448
548 1 0.997682 0.18878 0.310855
552 1 0.126617 0.186033 0.312472
556 1 0.249119 0.18347 0.306683
560 1 0.374864 0.184442 0.312707
564 1 0.503071 0.186957 0.315652
568 1 0.628287 0.183201 0.311052
572 1 0.748914 0.188938 0.305147
576 1 0.877067 0.191662 0.309866
579 1 0.0645901 0.25243 0.308613
583 1 0.196055 0.250445 0.304206
587 1 0.315429 0.245077 0.311769
591 1 0.436355 0.251859 0.311044
595 1 0.566274 0.251414 0.309699
599 1 0.685275 0.247492 0.310942
603 1 0.813002 0.256736 0.314396
607 1 0.930726 0.255196 0.314941
580 1 0.00224786 0.311587 0.310708
584 1 0.135627 0.308766 0.309667
588 1 0.252653 0.311986 0.309657
592 1 0.375423 0.313882 0.308834
596 1 0.495855 0.317681 0.317499
600 1 0.626509 0.314484 0.304298
604 1 0.754601 0.316083 0.308151
608 1 0.871405 0.313255 0.313353
611 1 0.0662159 0.37304 0.313674
615 1 0.191825 0.376515 0.316486
619 1 0.310325 0.37373 0.308608
623 1 0.436773 0.383015 0.310897
627 1 0.560415 0.379015 0.3094
631 1 0.690151 0.377479 0.311853
635 1 0.812948 0.383644 0.303317
639 1 0.940073 0.375763 0.313731
612 1 0.998873 0.433998 0.312869
616 1 0.12302 0.436991 0.311743
620 1 0.250003 0.438537 0.322095
624 1 0.370789 0.438136 0.314222
628 1 0.50246 0.441845 0.305588
632 1 0.621902 0.43996 0.311068
636 1 0.750298 0.439583 0.312289
640 1 0.87654 0.441648 0.303534
643 1 0.0653923 0.501435 0.316036
647 1 0.187289 0.496721 0.310842
651 1 0.31236 0.497683 0.310915
655 1 0.437644 0.503921 0.31628
659 1 0.561429 0.505091 0.303143
663 1 0.682913 0.504308 0.310712
667 1 0.818951 0.504636 0.308064
671 1 0.93902 0.50787 0.309028
648 1 0.126689 0.558099 0.315589
652 1 0.252759 0.564805 0.30916
656 1 0.373859 0.56552 0.313203
660 1 0.501217 0.560886 0.318131
664 1 0.623061 0.56198 0.309245
668 1 0.753347 0.57151 0.315668
672 1 0.876628 0.565026 0.309224
644 1 0.0026074 0.564413 0.3129
675 1 0.0655902 0.623126 0.313695
679 1 0.189387 0.621043 0.312273
683 1 0.311494 0.625915 0.310364
687 1 0.434066 0.624518 0.311102
691 1 0.561654 0.623384 0.309404
695 1 0.681896 0.63095 0.313401
699 1 0.819244 0.631571 0.311089
703 1 0.944524 0.625995 0.316017
680 1 0.123387 0.686335 0.306593
684 1 0.251838 0.689404 0.313157
688 1 0.379761 0.691585 0.30969
692 1 0.496628 0.684745 0.314623
696 1 0.621866 0.690736 0.308831
700 1 0.749558 0.692249 0.318499
704 1 0.874024 0.692824 0.317931
676 1 0.00529855 0.687725 0.309141
707 1 0.0614456 0.749398 0.307932
711 1 0.189569 0.749947 0.308468
715 1 0.314405 0.748348 0.314045
719 1 0.441261 0.749331 0.319669
723 1 0.560661 0.746036 0.310974
157 1 0.874759 0.502012 -0.004283
193 1 0.00942972 0.749896 0.00552247
222 1 0.941494 0.812633 0.00957453
170 1 0.311485 0.689906 0.000958897
229 1 0.126593 0.87644 -0.000511244
162 1 0.0651733 0.684053 0.00256817
90 1 0.811412 0.315385 0.0105065
21 1 0.623301 -0.000355677 0.0017707
58 1 0.809054 0.182254 0.00182151
146 1 0.566717 0.564217 -0.00428852
97 1 -0.00165875 0.374507 0.00147112
17 1 0.501052 0.00368433 -0.000639085
213 1 0.63133 0.746926 0.00090724
25 1 0.748015 0.00340062 -9.91492e-05
86 1 0.688383 0.302344 0.00096208
246 1 0.686337 0.942363 0.00423153
65 1 -0.000416719 0.24915 0.00103777
18 1 0.565802 0.0615172 -3.60348e-05
190 1 0.943082 0.682986 0.00774231
2 1 0.0601735 0.0677426 0.00698899
186 1 0.811629 0.689143 -0.00069924
62 1 0.93377 0.188039 0.00193023
173 1 0.371737 0.625857 0.00053332
53 1 0.624076 0.119833 0.00541757
13 1 0.374577 0.00445945 0.00537582
122 1 0.811927 0.436974 0.00111642
41 1 0.243259 0.123255 0.000151644
29 1 0.870543 0.00508836 0.0063118
22 1 0.687264 0.0613862 0.00464706
66 1 0.0654103 0.318133 0.00551117
1 1 0.00253274 0.00210764 0.00207477
201 1 0.250971 0.749694 0.00142095
185 1 0.756946 0.626313 0.00200818
98 1 0.0573996 0.442209 0.0100486
73 1 0.247988 0.251996 0.00110565
26 1 0.812163 0.0638152 0.0028546
9 1 0.246387 0.00140544 -0.00062237
82 1 0.560468 0.304439 0.00478285
249 1 0.746771 0.876134 0.00488278
242 1 0.561106 0.944678 0.00498683
154 1 0.81053 0.566039 -0.000337059
77 1 0.373126 0.253733 0.00624291
225 1 0.997774 0.87616 0.00226588
189 1 0.873659 0.630067 0.00748968
158 1 0.936298 0.566134 0.00747239
94 1 0.937857 0.31104 0.00224237
777 1 0.248175 0.996874 0.37699
781 1 0.369474 0.00424252 0.370224
793 1 0.752957 0.995889 0.376563
797 1 0.876537 0.99968 0.377944
769 1 0.995244 0.994989 0.376944
770 1 0.0627644 0.069077 0.377728
774 1 0.188057 0.0596482 0.37319
778 1 0.306924 0.0603469 0.377142
782 1 0.433581 0.0697455 0.377499
786 1 0.564772 0.0640595 0.37271
790 1 0.683255 0.0571929 0.377554
794 1 0.811048 0.0622102 0.37161
798 1 0.934309 0.0611313 0.372917
801 1 0.00357202 0.12571 0.3757
805 1 0.130881 0.1245 0.377685
809 1 0.247561 0.122639 0.374172
813 1 0.367943 0.124086 0.376335
817 1 0.502459 0.124031 0.371894
821 1 0.623249 0.121956 0.373808
825 1 0.74398 0.126467 0.37955
829 1 0.872846 0.122807 0.375408
802 1 0.0652733 0.187581 0.370798
806 1 0.18738 0.186607 0.374622
810 1 0.305963 0.183889 0.373063
814 1 0.434481 0.187709 0.374293
818 1 0.560582 0.18279 0.373395
822 1 0.683795 0.184869 0.371896
826 1 0.812057 0.188077 0.369761
830 1 0.935348 0.19012 0.379245
833 1 0.995578 0.250462 0.370565
837 1 0.124879 0.247765 0.373195
841 1 0.24905 0.245304 0.376882
845 1 0.376425 0.250702 0.372678
849 1 0.496945 0.250404 0.369018
853 1 0.624091 0.253213 0.370524
857 1 0.74684 0.249482 0.369713
861 1 0.874297 0.248963 0.377084
834 1 0.063967 0.309354 0.374575
838 1 0.191215 0.312738 0.376251
842 1 0.314188 0.314797 0.377032
846 1 0.432492 0.313387 0.37665
850 1 0.56781 0.312103 0.36674
854 1 0.684311 0.317157 0.371251
858 1 0.809792 0.32325 0.372272
862 1 0.931505 0.321393 0.376069
865 1 0.00214162 0.379397 0.373628
869 1 0.128807 0.370934 0.379707
873 1 0.254573 0.37404 0.377519
877 1 0.369847 0.376538 0.368726
881 1 0.506445 0.378811 0.371764
885 1 0.624098 0.376702 0.369585
889 1 0.748621 0.378348 0.37269
893 1 0.872228 0.384053 0.373701
866 1 0.0612533 0.436333 0.374186
870 1 0.19132 0.433541 0.380959
874 1 0.314176 0.442275 0.38253
878 1 0.429611 0.440915 0.375015
882 1 0.560802 0.439144 0.370932
886 1 0.689096 0.44144 0.369647
890 1 0.808689 0.438129 0.372653
894 1 0.93692 0.437241 0.375566
901 1 0.1287 0.501879 0.378104
905 1 0.249665 0.500972 0.376421
909 1 0.371784 0.505509 0.375388
913 1 0.499284 0.501543 0.374946
917 1 0.617212 0.500821 0.378588
921 1 0.753323 0.502323 0.367149
925 1 0.874939 0.503331 0.369579
897 1 0.00504985 0.501155 0.370157
898 1 0.0677342 0.561198 0.376277
902 1 0.191514 0.566369 0.376213
906 1 0.313307 0.567737 0.379609
910 1 0.436854 0.565164 0.374347
914 1 0.566029 0.571899 0.374278
918 1 0.69222 0.558739 0.374413
922 1 0.814519 0.561275 0.378752
926 1 0.941817 0.566122 0.374265
929 1 0.00754383 0.626033 0.374338
933 1 0.121948 0.626363 0.376037
937 1 0.25299 0.628957 0.374906
941 1 0.373242 0.630911 0.366875
945 1 0.500897 0.622671 0.372905
949 1 0.624399 0.632304 0.371088
953 1 0.756319 0.632276 0.372278
957 1 0.874778 0.624222 0.373802
930 1 0.0669098 0.690764 0.369687
934 1 0.182715 0.68987 0.374621
938 1 0.313513 0.687714 0.375193
942 1 0.435813 0.684327 0.375827
946 1 0.563354 0.694565 0.375905
950 1 0.687569 0.691349 0.372811
954 1 0.813157 0.693939 0.376313
958 1 0.940798 0.690844 0.37967
965 1 0.130247 0.754442 0.368806
969 1 0.245963 0.745824 0.373028
973 1 0.37218 0.749138 0.373935
977 1 0.500478 0.747274 0.377914
981 1 0.622877 0.750736 0.37688
985 1 0.746115 0.750791 0.374316
989 1 0.876806 0.751901 0.379618
961 1 0.00318362 0.750957 0.369304
962 1 0.0682046 0.80633 0.372684
966 1 0.188964 0.815707 0.364975
970 1 0.313086 0.815703 0.373585
974 1 0.439107 0.811592 0.378208
978 1 0.561354 0.813446 0.372652
982 1 0.68465 0.812161 0.379125
986 1 0.814535 0.811225 0.377981
990 1 0.943358 0.812012 0.377167
997 1 0.126337 0.870122 0.371864
1001 1 0.250117 0.875496 0.375048
1005 1 0.37633 0.876643 0.374948
1009 1 0.50187 0.87144 0.380751
1013 1 0.621933 0.875998 0.369617
1017 1 0.749972 0.873984 0.376758
1021 1 0.875039 0.873922 0.373635
993 1 0.00489084 0.869777 0.375941
994 1 0.0627342 0.93919 0.382426
998 1 0.185809 0.939227 0.371376
1002 1 0.312572 0.936176 0.375561
1006 1 0.436363 0.938745 0.370988
1010 1 0.565873 0.943973 0.373913
1018 1 0.815298 0.933476 0.377531
1022 1 0.940836 0.934187 0.37451
773 1 0.130524 0.999181 0.382053
785 1 0.494917 0.00684393 0.371661
789 1 0.625602 0.00418993 0.377518
1014 1 0.688046 0.93771 0.371821
775 1 0.187229 1.00081 0.440915
779 1 0.3095 0.999906 0.436562
791 1 0.686563 0.997763 0.439423
795 1 0.808906 0.998128 0.438374
799 1 0.934837 0.997611 0.443238
772 1 0.994396 0.0595007 0.43028
776 1 0.125225 0.0666076 0.435506
780 1 0.245821 0.0641868 0.443007
784 1 0.369821 0.0580663 0.434215
788 1 0.500385 0.067064 0.44045
792 1 0.62928 0.0598242 0.441595
796 1 0.747476 0.061781 0.435291
800 1 0.875148 0.0606564 0.4374
803 1 0.0590341 0.129337 0.437779
807 1 0.189575 0.127976 0.440071
811 1 0.30782 0.121745 0.43671
815 1 0.436032 0.125665 0.437791
819 1 0.566417 0.119351 0.440933
823 1 0.68337 0.129992 0.438013
827 1 0.813508 0.126981 0.433402
831 1 0.935879 0.124918 0.437809
804 1 -0.000964244 0.191627 0.437518
808 1 0.118489 0.191297 0.442595
812 1 0.248726 0.185708 0.438602
816 1 0.367738 0.182787 0.436187
820 1 0.500543 0.178911 0.433559
824 1 0.613879 0.188612 0.435333
828 1 0.747029 0.190508 0.435161
832 1 0.876207 0.194129 0.435949
835 1 0.0551278 0.250078 0.437643
839 1 0.184748 0.253042 0.434741
843 1 0.312683 0.248535 0.434694
847 1 0.441901 0.249554 0.43509
851 1 0.557905 0.253011 0.430483
855 1 0.679424 0.25562 0.428944
859 1 0.806792 0.251382 0.431388
863 1 0.935393 0.256594 0.432496
836 1 0.000928633 0.317016 0.434086
840 1 0.122063 0.311747 0.440813
844 1 0.25059 0.309091 0.441503
848 1 0.374759 0.308486 0.438582
852 1 0.497442 0.313454 0.434525
856 1 0.620302 0.312864 0.442838
860 1 0.746679 0.311506 0.425552
864 1 0.872602 0.322404 0.437638
867 1 0.0633206 0.374424 0.434487
871 1 0.187974 0.367565 0.440344
875 1 0.320353 0.373883 0.437278
879 1 0.434824 0.376066 0.432666
883 1 0.562744 0.379217 0.43314
887 1 0.685513 0.373378 0.43055
891 1 0.807285 0.375671 0.437589
895 1 0.941422 0.378882 0.438795
868 1 0.00255604 0.436404 0.433862
872 1 0.128845 0.436617 0.433276
876 1 0.254054 0.440404 0.439804