ITEM: TIMESTEP
100000
ITEM: NUMBER OF ATOMS
2048
ITEM: BOX BOUNDS pp pp pp
-6.5765655315479199e+00 6.5765655315479199e+00
-6.5765655315479199e+00 6.5765655315479199e+00
-6.5765655315479199e+00 6.5765655315479199e+00
ITEM: ATOMS id type xs ys zs
2038 1 0.0355525 0.000480768 0.0294698
1492 1 0.114523 0.0111533 0.0423298
286 1 0.426694 0.0333557 0.00330017
62 1 0.556132 0.0179668 0.00741235
1751 1 0.710346 0.0416802 0.0505923
539 1 0.86995 0.0104373 0.0171317
384 1 0.957095 0.0244398 0.0156225
1800 1 0.226673 0.078987 0.04646
1175 1 0.506928 0.0670809 0.0268056
1303 1 0.623691 0.0683408 0.0358142
966 1 0.813128 0.0998661 0.043149
342 1 0.919899 0.096794 0.0108887
1511 1 0.0551352 0.121355 0.00604282
859 1 0.16991 0.131155 0.052537
546 1 0.306141 0.137757 0.0300581
845 1 0.690256 0.113008 0.0533105
504 1 0.0199913 0.190106 0.0190064
725 1 0.109509 0.165352 0.000344179
839 1 0.184586 0.195946 0.0151805
650 1 0.492993 0.15453 0.00322939
1405 1 0.572008 0.153529 0.00214076
1473 1 0.647765 0.161916 0.0193828
106 1 0.942643 0.171799 0.0437125
490 1 0.392278 0.237372 0.0275437
624 1 0.537298 0.210172 0.0397767
307 1 0.738323 0.248106 0.0239969
1984 1 0.808708 0.214281 0.0411017
879 1 0.881105 0.209937 0.0107519
987 1 0.0926067 0.261321 0.030614
372 1 0.248543 0.260885 0.0299791
663 1 0.492368 0.285136 0.0399957
1527 1 0.680249 0.293053 0.00330773
1454 1 0.852383 0.275208 0.0227153
1071 1 0.157081 0.329637 0.00386168
695 1 0.235846 0.339011 0.00388923
622 1 0.331365 0.332258 0.0353256
921 1 0.407569 0.322034 0.0223054
1284 1 0.612708 0.320154 0.00574046
158 1 0.0657174 0.357733 0.0512198
838 1 0.356106 0.393376 0.00544099
417 1 0.554531 0.361717 0.0321244
217 1 0.646973 0.384024 0.0101922
270 1 0.720853 0.353281 0.0117255
347 1 0.904348 0.391201 0.0282919
1038 1 0.266415 0.400018 0.0258434
173 1 0.502359 0.409728 0.00208985
1969 1 0.779599 0.40364 0.0441881
1532 1 0.0245459 0.475045 0.00595639
1584 1 0.156233 0.49285 0.00567843
935 1 0.242466 0.484492 0.00714562
807 1 0.315908 0.456682 0.0120525
713 1 0.387773 0.48457 0.0440906
750 1 0.463984 0.468684 0.0466886
1895 1 0.572016 0.491042 0.0246443
149 1 0.640811 0.462251 0.0010569
1344 1 0.912853 0.493841 0.0314988
1113 1 0.109003 0.541749 0.0439597
1557 1 0.185299 0.546393 0.0489364
126 1 0.352024 0.543449 0.00349563
395 1 0.502275 0.537293 0.0138765
1989 1 0.694 0.543865 0.00131031
714 1 0.771428 0.508512 0.0290776
965 1 0.859716 0.545823 0.0325068
578 1 0.968074 0.545384 0.023534
509 1 0.245168 0.569448 0.00389817
1379 1 0.419221 0.556257 0.0356338
1509 1 0.630823 0.571671 0.0401375
1596 1 0.742042 0.583623 0.0342185
1390 1 0.0770903 0.611178 0.0391734
87 1 0.150871 0.637789 0.013417
1407 1 0.269695 0.63523 0.021455
1309 1 0.426471 0.634959 0.016713
551 1 0.502803 0.626391 0.0170491
1780 1 0.662144 0.635724 0.0156039
1056 1 0.821947 0.627703 0.0122833
1570 1 0.962448 0.640432 0.0156598
1337 1 0.0785644 0.687586 0.0245648
350 1 0.412185 0.699378 0.0494358
501 1 0.531859 0.699178 0.0229971
1986 1 0.763295 0.668263 0.0427937
1050 1 0.901585 0.681121 0.0429481
1003 1 0.157477 0.700534 0.0494551
936 1 0.282578 0.719555 0.0406776
1437 1 0.36045 0.741017 0.0107115
1182 1 0.4673 0.743927 0.0399401
34 1 0.714934 0.720827 0.00967315
860 1 0.824777 0.714024 0.0218511
204 1 0.997728 0.722631 0.0341366
1090 1 0.0743401 0.762324 0.033592
38 1 0.564325 0.757944 0.0442104
290 1 0.660252 0.793663 0.0239609
572 1 0.774594 0.769721 0.00856273
1163 1 0.936018 0.799564 0.0291585
1190 1 0.0886541 0.833756 0.00616674
191 1 0.250063 0.824917 0.0261159
454 1 0.320254 0.814205 0.0461054
1547 1 0.559971 0.837248 0.0367792
1729 1 0.768807 0.843563 0.00938081
111 1 0.84155 0.82432 0.00681514
929 1 0.185774 0.892746 0.0541429
2039 1 0.449849 0.881364 0.0437529
930 1 0.626941 0.875653 0.00444026
1810 1 0.851131 0.884291 0.047355
1728 1 0.149967 0.936896 0.000952181
1292 1 0.330231 0.906408 0.0473527
1786 1 0.516595 0.907376 0.0514045
1849 1 0.591019 0.929261 0.0454261
602 1 0.753093 0.921357 0.0477618
1145 1 0.999032 0.934581 0.0320428
706 1 0.186124 0.989482 0.0309444
1727 1 0.336 0.980175 0.0190199
1351 1 0.414808 0.960649 0.0277155
39 1 0.484768 0.973765 0.0311346
438 1 0.703168 0.969457 0.00805352
170 1 0.811039 0.964349 0.0358207
498 1 0.927261 0.961104 0.0413414
1477 1 0.230333 0.0289412 0.104845
1475 1 0.303751 0.0422891 0.0859738
185 1 0.375707 0.010549 0.0783618
1474 1 0.764825 0.000442512 0.0839685
450 1 0.089615 0.0913102 0.0697553
1565 1 0.15828 0.0557748 0.0918871
188 1 0.424324 0.0644661 0.0760288
902 1 0.493783 0.0712831 0.106975
366 1 0.56264 0.0570309 0.0774017
1806 1 0.874158 0.0551947 0.0882175
823 1 0.955743 0.0694537 0.0740869
1784 1 0.0285813 0.131854 0.0768755
510 1 0.239292 0.131029 0.103866
1563 1 0.361674 0.102121 0.0642934
978 1 0.442294 0.134204 0.0622076
1795 1 0.536528 0.138092 0.0645545
1215 1 0.609214 0.137019 0.0744295
13 1 0.75746 0.143688 0.064302
1017 1 0.185014 0.179629 0.108924
45 1 0.272858 0.192048 0.077067
1681 1 0.345145 0.186628 0.0678163
797 1 0.681477 0.196694 0.0846539
1039 1 0.871243 0.159426 0.0700352
208 1 0.0706627 0.206768 0.0790281
1172 1 0.396336 0.231021 0.101426
1714 1 0.459582 0.218853 0.0608091
1357 1 0.597576 0.209311 0.0886968
1819 1 0.971661 0.238768 0.0705834
207 1 0.174787 0.258084 0.0816776
1573 1 0.334975 0.263798 0.0732001
1345 1 0.432772 0.290731 0.0922928
477 1 0.574054 0.278022 0.0894624
1191 1 0.638684 0.262307 0.0617989
1645 1 0.712399 0.262868 0.103908
220 1 0.788204 0.264817 0.097971
2025 1 0.867128 0.257958 0.108112
269 1 0.0193729 0.304603 0.0920813
1925 1 0.127467 0.310499 0.0702594
1601 1 0.197485 0.329291 0.0683539
1040 1 0.268851 0.314309 0.0854806
593 1 0.524312 0.330374 0.100839
1870 1 0.777314 0.323617 0.0574075
910 1 0.855286 0.345888 0.0567809
1507 1 0.94823 0.315637 0.0633639
1403 1 0.222368 0.396784 0.100581
659 1 0.306693 0.386072 0.0884097
952 1 0.394071 0.36101 0.0904598
592 1 0.467058 0.369822 0.0633004
1752 1 0.606456 0.362049 0.0934218
716 1 0.682701 0.369843 0.0930221
931 1 0.99789 0.384243 0.0786172
1545 1 0.0614526 0.442122 0.0685792
786 1 0.142655 0.423556 0.0592929
1718 1 0.407431 0.431478 0.0854849
1030 1 0.551313 0.422937 0.0744428
1578 1 0.636222 0.430125 0.0786561
1937 1 0.8515 0.434647 0.0697667
1319 1 0.917202 0.412293 0.096571
811 1 0.199611 0.472037 0.0765528
1903 1 0.280767 0.46884 0.088089
330 1 0.522462 0.483102 0.108351
1894 1 0.680109 0.499562 0.0766018
259 1 0.74049 0.462311 0.0751933
601 1 0.981567 0.476868 0.0660807
1731 1 0.0466438 0.517617 0.0760886
704 1 0.234696 0.547597 0.108251
745 1 0.297804 0.541762 0.0670949
445 1 0.428651 0.503382 0.109043
344 1 0.610367 0.51439 0.100567
1157 1 0.00539721 0.584399 0.0753295
329 1 0.36975 0.554853 0.110064
408 1 0.489958 0.575566 0.0788922
1214 1 0.80077 0.566432 0.0787474
1463 1 0.935824 0.56684 0.0912954
415 1 0.155606 0.606811 0.0934113
374 1 0.347328 0.620478 0.0705808
769 1 0.425433 0.608831 0.0859962
276 1 0.556397 0.613266 0.0744151
548 1 0.681355 0.625958 0.083845
942 1 0.759984 0.626671 0.102745
145 1 0.881464 0.609841 0.0581373
160 1 0.950344 0.642642 0.0991984
576 1 0.022451 0.667464 0.0803597
137 1 0.207945 0.650807 0.0663141
1271 1 0.35126 0.695352 0.0874948
1668 1 0.476657 0.673557 0.0657577
1510 1 0.611453 0.667067 0.0569504
1683 1 0.0534227 0.726138 0.108958
1652 1 0.666995 0.735151 0.0716336
393 1 0.87644 0.72165 0.0970413
1522 1 0.12567 0.756466 0.0970183
513 1 0.202649 0.773794 0.0753824
1875 1 0.371698 0.765836 0.0943215
516 1 0.614556 0.783444 0.0972199
1721 1 0.736951 0.759085 0.0755677
1493 1 0.98958 0.791552 0.0822146
554 1 0.0713243 0.820796 0.103251
924 1 0.146874 0.825796 0.0641203
431 1 0.202981 0.840506 0.110633
1256 1 0.275649 0.801747 0.0999934
1865 1 0.431832 0.816846 0.0801013
570 1 0.515342 0.800334 0.0807132
673 1 0.737189 0.83664 0.0763555
1543 1 0.851448 0.800627 0.0793748
221 1 0.0417978 0.89247 0.0756992
686 1 0.115487 0.891614 0.107582
1209 1 0.265205 0.884823 0.0800547
136 1 0.387806 0.877461 0.106395
18 1 0.686723 0.883294 0.0620226
1229 1 0.953708 0.888614 0.0778246
1953 1 0.343437 0.947948 0.107555
639 1 0.621396 0.901287 0.108859
864 1 0.0727071 0.984854 0.103449
184 1 0.145358 0.981854 0.10826
598 1 0.271702 0.977991 0.0629026
1501 1 0.45555 0.959272 0.0932902
1398 1 0.620326 0.994972 0.0739586
1411 1 0.696304 0.969217 0.0842991
808 1 0.887613 0.973081 0.102525
541 1 0.987546 0.994024 0.0912683
1619 1 0.0139831 0.0176016 0.166551
802 1 0.0966461 0.0450157 0.148406
1555 1 0.284995 0.0282546 0.165172
1764 1 0.360718 0.0111649 0.15336
785 1 0.436379 0.0268105 0.148319
670 1 0.510327 0.0186873 0.159867
1951 1 0.581079 0.00968379 0.162396
888 1 0.722456 0.0248296 0.135614
1433 1 0.866991 0.0245077 0.156581
1497 1 0.0262309 0.0746506 0.126815
1456 1 0.402787 0.0967637 0.161916
1670 1 0.638568 0.0544218 0.117389
1978 1 0.799147 0.0703004 0.117774
90 1 0.931624 0.065752 0.146414
637 1 0.169901 0.110722 0.147477
1816 1 0.324321 0.104091 0.130661
585 1 0.462721 0.133931 0.131679
867 1 0.574349 0.107132 0.152498
1835 1 0.674617 0.118116 0.125379
1286 1 0.811859 0.145184 0.122725
353 1 0.935338 0.149368 0.115883
49 1 0.00400954 0.185796 0.123787
793 1 0.124833 0.169715 0.147418
482 1 0.319751 0.198497 0.134683
1931 1 0.390862 0.172856 0.144264
1902 1 0.521864 0.193919 0.124979
998 1 0.602886 0.177447 0.155169
1968 1 0.738494 0.181823 0.13531
154 1 0.0506113 0.232885 0.152711
340 1 0.248954 0.248252 0.122061
988 1 0.930425 0.22236 0.139914
1675 1 0.114944 0.273564 0.143691
573 1 0.406949 0.290503 0.162896
1490 1 0.493339 0.277111 0.153291
1204 1 0.583382 0.251515 0.164826
1329 1 0.650703 0.290604 0.13822
1099 1 0.189675 0.313318 0.140058
1109 1 0.270563 0.333012 0.160166
1222 1 0.344525 0.336742 0.160044
682 1 0.470306 0.345839 0.143472
248 1 0.587816 0.32667 0.152559
940 1 0.828323 0.314023 0.133853
1248 1 0.954424 0.34976 0.135386
1633 1 0.0222038 0.380071 0.158898
947 1 0.137783 0.379425 0.123174
59 1 0.41515 0.398122 0.159518
1480 1 0.792685 0.391836 0.116609
791 1 0.294662 0.433634 0.164908
376 1 0.57104 0.400973 0.151692
355 1 0.731072 0.423765 0.149572
1981 1 0.970668 0.434034 0.137825
66 1 0.0761914 0.452654 0.142986
127 1 0.192436 0.460171 0.15983
945 1 0.347528 0.450766 0.117613
579 1 0.634097 0.451359 0.15708
487 1 0.799609 0.471407 0.111202
107 1 0.872813 0.46771 0.130632
882 1 0.147813 0.507523 0.111491
612 1 0.490106 0.526497 0.16378
235 1 0.549668 0.546176 0.119604
1839 1 0.746534 0.525902 0.123581
150 1 0.868501 0.541572 0.128638
646 1 0.942329 0.50621 0.135458
1129 1 0.0816748 0.578921 0.114729
1016 1 0.620575 0.587203 0.118016
396 1 0.801936 0.570171 0.152364
1413 1 0.0300919 0.609291 0.155684
2026 1 0.290502 0.600471 0.11412
583 1 0.365561 0.623893 0.145745
1887 1 0.510871 0.604246 0.165153
635 1 0.852708 0.638795 0.123308
1452 1 0.00297991 0.686851 0.149243
96 1 0.0895304 0.660311 0.116057
976 1 0.155059 0.657252 0.165622
1796 1 0.238854 0.660558 0.150936
1325 1 0.447219 0.653278 0.161406
766 1 0.544038 0.662814 0.135563
115 1 0.656978 0.679407 0.130776
542 1 0.109907 0.721422 0.160374
1961 1 0.187471 0.713025 0.119699
266 1 0.298831 0.708961 0.140772
1417 1 0.438838 0.745764 0.133628
734 1 0.516702 0.735346 0.1283
1514 1 0.587152 0.715809 0.113305
648 1 0.732309 0.705804 0.135116
1299 1 0.0424341 0.780796 0.157421
1943 1 0.202269 0.778584 0.153625
688 1 0.334045 0.796612 0.145174
1376 1 0.683904 0.799753 0.121018
752 1 0.798443 0.774942 0.128045
649 1 0.928072 0.755617 0.142331
1775 1 0.139087 0.836927 0.16044
1333 1 0.449739 0.848369 0.148716
603 1 0.566753 0.846874 0.114381
1696 1 0.739984 0.84729 0.153541
1910 1 0.914794 0.825068 0.13307
428 1 0.995477 0.848733 0.147833
919 1 0.305991 0.874337 0.15146
31 1 0.676771 0.897932 0.164131
862 1 0.810818 0.855401 0.115003
118 1 0.00922249 0.933662 0.12819
430 1 0.192138 0.905338 0.151843
1124 1 0.275603 0.938464 0.137259
728 1 0.507626 0.901772 0.133769
44 1 0.741964 0.929371 0.145621
1370 1 0.89839 0.907672 0.140213
171 1 0.419599 0.955147 0.155615
1649 1 0.559819 0.951042 0.119302
869 1 0.655071 0.970516 0.143794
392 1 0.816624 0.957377 0.120379
1019 1 0.948878 0.979155 0.160242
1058 1 0.187518 0.0371026 0.167259
662 1 0.406208 0.0443779 0.211385
1571 1 0.69805 0.0202284 0.207495
1542 1 0.782282 0.000504788 0.175998
522 1 0.0272768 0.091172 0.212971
1577 1 0.118877 0.0988094 0.197881
574 1 0.198228 0.0954893 0.220925
335 1 0.496964 0.0791304 0.218758
790 1 0.650306 0.0769513 0.196002
855 1 0.0582236 0.144181 0.170399
250 1 0.234588 0.144018 0.173921
1614 1 0.427219 0.143223 0.219191
1801 1 0.602659 0.133804 0.219069
699 1 0.73503 0.113051 0.174215
274 1 0.829585 0.101982 0.200201
379 1 0.899854 0.117017 0.197518
1620 1 0.973573 0.126652 0.179454
1503 1 0.165203 0.168527 0.222102
599 1 0.304962 0.165195 0.203819
685 1 0.525281 0.175677 0.218125
957 1 0.771847 0.179871 0.221212
1165 1 0.860211 0.198463 0.169757
2015 1 0.180651 0.239108 0.174926
1743 1 0.425038 0.214776 0.191091
658 1 0.68984 0.201752 0.180431
1604 1 0.789397 0.245736 0.181002
1212 1 0.965014 0.237553 0.202121
1500 1 0.264972 0.25454 0.216807
1987 1 0.329937 0.266212 0.172347
626 1 0.524738 0.250673 0.215991
687 1 0.579119 0.298122 0.219047
1753 1 0.856404 0.269612 0.212496
1617 1 0.916519 0.294546 0.177447
109 1 0.00745284 0.302403 0.193415
1598 1 0.0769803 0.332882 0.176226
594 1 0.15034 0.309504 0.206219
1945 1 0.226093 0.328957 0.221874
881 1 0.515096 0.343212 0.201792
543 1 0.652729 0.300362 0.21314
458 1 0.744044 0.303392 0.17421
1650 1 0.177502 0.38169 0.206029
844 1 0.285438 0.38349 0.220876
2005 1 0.582735 0.374875 0.220635
142 1 0.671179 0.384368 0.175931
1335 1 0.740048 0.382494 0.219312
74 1 0.843485 0.380331 0.173375
1658 1 0.00204479 0.431497 0.206594
243 1 0.0897541 0.402846 0.197837
1327 1 0.238032 0.443587 0.218196
721 1 0.357914 0.423708 0.218588
964 1 0.4875 0.427651 0.175706
104 1 0.807322 0.441409 0.206125
1285 1 0.908373 0.420282 0.176501
2029 1 0.417114 0.474922 0.175973
892 1 0.566334 0.472888 0.17533
231 1 0.700518 0.494399 0.182525
1745 1 0.949118 0.479795 0.219441
1505 1 0.0432356 0.524763 0.174584
809 1 0.117215 0.515016 0.185008
2001 1 0.217479 0.529345 0.193152
1135 1 0.358281 0.516089 0.172238
1754 1 0.577566 0.544595 0.189166
854 1 0.156939 0.578184 0.17444
1716 1 0.295074 0.556541 0.175484
1372 1 0.429829 0.569593 0.180083
332 1 0.658438 0.558645 0.180848
1308 1 0.954261 0.584653 0.197679
175 1 0.303738 0.637005 0.179625
2036 1 0.591007 0.626689 0.178755
1756 1 0.662053 0.640059 0.196556
1790 1 0.733837 0.606575 0.212697
242 1 0.876162 0.603237 0.188878
1772 1 0.0575776 0.663679 0.199909
1001 1 0.519548 0.677137 0.209542
760 1 0.721576 0.6984 0.210963
1805 1 0.774622 0.654491 0.173946
1936 1 0.916453 0.667093 0.174594
43 1 0.177701 0.722863 0.21637
1341 1 0.245335 0.711274 0.199581
253 1 0.314838 0.703765 0.216091
1254 1 0.370998 0.714551 0.167169
2033 1 0.601395 0.707395 0.194172
1676 1 0.836638 0.736424 0.172062
356 1 0.971752 0.736691 0.208504
56 1 0.502955 0.75956 0.211839
1935 1 0.567939 0.772315 0.175605
690 1 0.677107 0.751656 0.175687
178 1 0.760762 0.758598 0.191994
771 1 0.0342784 0.821067 0.220431
226 1 0.204637 0.847346 0.210452
905 1 0.272684 0.810481 0.185793
816 1 0.519342 0.834057 0.175898
424 1 0.641225 0.830227 0.185234
1274 1 0.71007 0.829968 0.222078
2043 1 0.781634 0.843801 0.216777
1449 1 0.842726 0.808853 0.193052
1548 1 0.914289 0.812709 0.221961
32 1 0.370428 0.850796 0.173422
1858 1 0.577726 0.897784 0.178349
533 1 0.0692328 0.90401 0.166853
1208 1 0.130615 0.947106 0.172136
1224 1 0.269924 0.906331 0.209027
751 1 0.358157 0.929912 0.206872
2002 1 0.477736 0.914205 0.19757
764 1 0.714148 0.943855 0.216663
1526 1 0.825231 0.904384 0.179056
1498 1 0.952286 0.902605 0.196587
95 1 0.0641013 0.985395 0.220841
718 1 0.211839 0.960973 0.193962
1897 1 0.625365 0.952329 0.204377
236 1 0.896382 0.953233 0.200912
1045 1 0.138218 0.0344968 0.227442
748 1 0.226942 0.0339375 0.253271
1869 1 0.559008 0.0356448 0.226234
1304 1 0.729415 0.00576872 0.276511
914 1 0.810619 0.0265824 0.244879
52 1 0.88882 0.0499668 0.231484
1352 1 0.964469 0.0382954 0.2272
1766 1 0.324435 0.0529719 0.226274
1813 1 0.455626 0.0694662 0.276205
1591 1 0.556623 0.0939559 0.273843
1496 1 0.710048 0.0880517 0.246975
1012 1 0.265945 0.107609 0.233713
1608 1 0.359157 0.122792 0.243316
1096 1 0.776568 0.107104 0.258544
176 1 0.00888326 0.179945 0.240841
386 1 0.0757544 0.162176 0.273681
467 1 0.234581 0.175398 0.254322
434 1 0.709758 0.156337 0.262485
1724 1 0.902722 0.181855 0.238465
830 1 0.0915909 0.219888 0.222782
678 1 0.439731 0.209415 0.260758
1148 1 0.624455 0.213455 0.224154
479 1 0.833516 0.203615 0.252613
2027 1 0.0186964 0.291617 0.276287
119 1 0.165615 0.260641 0.259665
404 1 0.37217 0.273602 0.236791
1310 1 0.446796 0.275738 0.230539
433 1 0.725411 0.257467 0.238378
304 1 0.925805 0.278145 0.255314
973 1 0.298391 0.308044 0.269176
232 1 0.522174 0.302566 0.273976
2021 1 0.797539 0.311337 0.228531
633 1 0.867893 0.33601 0.245185
1314 1 0.0287404 0.368081 0.240377
316 1 0.122292 0.378751 0.264118
672 1 0.195423 0.379578 0.277014
1245 1 0.357482 0.360715 0.26068
275 1 0.493951 0.366846 0.271979
2003 1 0.659916 0.370498 0.266876
1702 1 0.81339 0.391555 0.2592
245 1 0.954629 0.363298 0.225588
787 1 0.0634971 0.434581 0.271976
254 1 0.174259 0.445633 0.259806
144 1 0.413756 0.415938 0.269007
634 1 0.600927 0.443504 0.237389
1151 1 0.675813 0.43906 0.240775
607 1 0.00892419 0.492959 0.269771
880 1 0.492544 0.474017 0.249262
1556 1 0.796721 0.480126 0.271538
281 1 0.873756 0.455254 0.245444
1149 1 0.0762544 0.505418 0.245299
1312 1 0.169323 0.540151 0.243076
1594 1 0.281467 0.50237 0.226106
1462 1 0.34748 0.50409 0.256473
852 1 0.433275 0.517949 0.251486
1450 1 0.51392 0.549029 0.275488
180 1 0.631251 0.51068 0.230463
813 1 0.72681 0.546661 0.256147
710 1 0.88047 0.538484 0.234949
1708 1 0.0211599 0.580373 0.22898
1097 1 0.309827 0.571447 0.248535
2044 1 0.381325 0.572281 0.239413
717 1 0.666208 0.590727 0.258041
630 1 0.813404 0.573869 0.224372
331 1 0.103937 0.609196 0.225692
1004 1 0.243041 0.60474 0.250709
829 1 0.449546 0.629676 0.244083
256 1 0.570895 0.610445 0.266614
1537 1 0.848111 0.648991 0.25366
1460 1 0.92536 0.629941 0.25097
906 1 0.186665 0.653387 0.237367
1634 1 0.370405 0.651638 0.228969
375 1 0.999393 0.663637 0.24381
1171 1 0.0824719 0.734853 0.23483
1824 1 0.379628 0.718873 0.257835
1101 1 0.451631 0.7057 0.23194
1958 1 0.813865 0.719158 0.243895
1687 1 0.899321 0.739933 0.228048
460 1 0.224229 0.781811 0.272343
765 1 0.322804 0.790002 0.236932
1823 1 0.565371 0.794045 0.269747
1083 1 0.650907 0.77902 0.246264
298 1 0.764404 0.762173 0.276016
783 1 0.145538 0.801034 0.223977
899 1 0.416269 0.835762 0.225026
1257 1 0.102819 0.869279 0.223986
2010 1 0.351436 0.865037 0.246129
337 1 0.542364 0.874594 0.246541
1778 1 0.663064 0.887467 0.245377
108 1 0.734959 0.892142 0.262656
320 1 0.87616 0.874432 0.249532
120 1 0.948262 0.879871 0.273651
1315 1 0.0159091 0.909339 0.235229
1851 1 0.208634 0.910077 0.245261
1318 1 0.419452 0.92098 0.247407
726 1 0.525946 0.949056 0.252494
1117 1 0.141135 0.95662 0.271546
555 1 0.284054 0.982245 0.222313
2007 1 0.368849 0.992186 0.250005
1723 1 0.466027 0.988687 0.227919
1901 1 0.793259 0.950432 0.251981
1722 1 0.863615 0.979648 0.272016
885 1 0.955747 0.971272 0.255297
1133 1 0.0261163 0.0317178 0.28111
1276 1 0.171011 0.0157266 0.309438
1732 1 0.301892 0.0102373 0.289593
1400 1 0.385959 0.0362837 0.308132
1797 1 0.503163 0.012663 0.288985
1941 1 0.59472 0.0424645 0.303957
314 1 0.807429 0.0344898 0.327461
1636 1 0.0280079 0.0956046 0.330665
971 1 0.118532 0.065192 0.291863
1693 1 0.220437 0.0982062 0.292663
1703 1 0.648576 0.0966082 0.29055
452 1 0.956564 0.0641058 0.299766
1064 1 0.156644 0.130633 0.306643
2037 1 0.300818 0.148955 0.286929
1061 1 0.350601 0.10857 0.322626
157 1 0.504031 0.125689 0.312325
1216 1 0.894942 0.125997 0.287867
1760 1 0.968686 0.132397 0.278419
1845 1 0.369536 0.190404 0.284749
1448 1 0.616398 0.165313 0.28893
1872 1 0.825859 0.171518 0.317562
168 1 0.997825 0.176364 0.331451
377 1 0.039205 0.237545 0.325626
534 1 0.108208 0.228772 0.298135
861 1 0.183206 0.202167 0.332631
255 1 0.270709 0.236792 0.308108
600 1 0.544506 0.200299 0.310308
1946 1 0.958971 0.230347 0.30054
148 1 0.381201 0.256798 0.316948
306 1 0.47885 0.256115 0.320295
238 1 0.581096 0.257226 0.281565
664 1 0.665684 0.254801 0.281484
1860 1 0.771767 0.261356 0.294139
1419 1 0.859541 0.267859 0.284056
847 1 0.149659 0.346553 0.325412
1592 1 0.102197 0.302985 0.280165
747 1 0.222938 0.301512 0.318485
981 1 0.423727 0.315286 0.298576
1478 1 0.592448 0.340299 0.301742
571 1 0.673859 0.339517 0.330694
300 1 0.844412 0.335099 0.314576
584 1 0.969062 0.340256 0.305871
552 1 0.0589228 0.362042 0.304316
1273 1 0.742313 0.354216 0.2971
1533 1 0.880416 0.394811 0.287351
163 1 0.247525 0.419762 0.305951
1377 1 0.336798 0.420786 0.298118
1432 1 0.556738 0.406205 0.282186
776 1 0.651528 0.411366 0.330633
1868 1 0.83522 0.445579 0.329479
198 1 0.983901 0.429487 0.29841
1267 1 0.303802 0.492072 0.319586
1272 1 0.396465 0.490714 0.306991
1829 1 0.469992 0.47497 0.321949
1440 1 0.593234 0.493459 0.308029
1266 1 0.728762 0.4639 0.290675
566 1 0.907125 0.466203 0.315119
199 1 0.141458 0.500605 0.299364
1360 1 0.2312 0.530228 0.293299
1485 1 0.6682 0.508453 0.300944
1364 1 0.849364 0.519448 0.30357
50 1 0.93086 0.542909 0.292216
194 1 0.0191948 0.560736 0.298441
1116 1 0.102373 0.569654 0.289687
759 1 0.412553 0.576078 0.31332
1088 1 0.625465 0.564827 0.310711
1635 1 0.724366 0.56563 0.327335
1265 1 0.774928 0.598673 0.287292
177 1 0.876572 0.593374 0.323886
473 1 0.0252217 0.637336 0.324155
1844 1 0.148037 0.638155 0.327698
485 1 0.21831 0.600758 0.326111
1426 1 0.478926 0.60824 0.304479
1841 1 0.684517 0.641078 0.310593
125 1 0.951628 0.608386 0.319739
7 1 0.0902373 0.658151 0.281583
967 1 0.199896 0.692386 0.303473
63 1 0.281977 0.653651 0.284833
983 1 0.381354 0.664317 0.318706
1539 1 0.532123 0.663298 0.294387
1924 1 0.624721 0.673756 0.287351
327 1 0.738733 0.683807 0.287025
1890 1 0.804218 0.679492 0.32217
660 1 0.884175 0.665854 0.321759
338 1 0.960736 0.686682 0.319902
758 1 0.0249092 0.712425 0.288459
69 1 0.131885 0.718819 0.304519
596 1 0.278823 0.736319 0.280265
291 1 0.48943 0.734501 0.291467
1261 1 0.592743 0.73895 0.306313
794 1 0.853312 0.734411 0.304271
1726 1 0.0818831 0.798077 0.285238
536 1 0.159155 0.797469 0.303584
873 1 0.424569 0.76969 0.297883
481 1 0.678874 0.75292 0.305929
779 1 0.90434 0.79874 0.322341
737 1 0.958091 0.754712 0.286941
456 1 0.0122192 0.811174 0.303255
986 1 0.308788 0.819324 0.305902
789 1 0.416217 0.842927 0.313577
1581 1 0.488707 0.813218 0.29063
1434 1 0.768546 0.835332 0.300543
324 1 0.838911 0.820147 0.291329
1354 1 0.0633524 0.890538 0.293178
1997 1 0.136227 0.88578 0.290536
1561 1 0.224913 0.852704 0.294536
493 1 0.364329 0.891971 0.316855
1174 1 0.606927 0.864588 0.291158
1094 1 0.694329 0.852935 0.308573
263 1 0.828696 0.89927 0.300668
1416 1 0.000261054 0.935981 0.310706
1147 1 0.295308 0.920633 0.29126
1205 1 0.470564 0.905909 0.30463
1131 1 0.595693 0.922338 0.332282
1980 1 0.68131 0.943228 0.287895
86 1 0.905698 0.9196 0.330753
1761 1 0.0759191 0.977071 0.303629
1457 1 0.215002 0.961271 0.297587
1355 1 0.418026 0.956289 0.313917
6 1 0.591634 0.974534 0.281091
746 1 0.952604 0.990489 0.330352
1549 1 0.0737757 0.0434946 0.381573
326 1 0.251566 0.0433888 0.346512
821 1 0.401162 0.0218632 0.381439
373 1 0.890211 0.0350022 0.342273
288 1 0.147621 0.0637651 0.369495
1655 1 0.333278 0.0511024 0.371518
1396 1 0.46711 0.0836709 0.359273
720 1 0.535279 0.0535314 0.352186
1739 1 0.681493 0.0884802 0.363656
53 1 0.738829 0.0574598 0.33551
2032 1 0.85216 0.0992222 0.344566
979 1 0.176999 0.143298 0.380243
301 1 0.265263 0.135347 0.365228
1836 1 0.61133 0.116285 0.353384
1820 1 0.749155 0.1346 0.365419
502 1 0.941292 0.109744 0.354758
2022 1 0.102805 0.183126 0.354769
1979 1 0.37554 0.157353 0.386056
1166 1 0.44161 0.161607 0.340554
799 1 0.521925 0.184167 0.381145
187 1 0.66996 0.161794 0.33907
1441 1 0.733477 0.1975 0.334582
272 1 0.892203 0.17888 0.371421
691 1 0.248108 0.212081 0.381831
2000 1 0.326849 0.240813 0.369072
1583 1 0.607462 0.213061 0.366881
5 1 0.778151 0.227956 0.384144
1807 1 0.937776 0.242191 0.381824
48 1 0.0777437 0.283565 0.373856
1066 1 0.145743 0.271843 0.352508
484 1 0.408546 0.25753 0.386602
812 1 0.552527 0.272883 0.357667
1690 1 0.716456 0.278968 0.351594
617 1 0.864476 0.250671 0.378863
743 1 0.00673114 0.301105 0.379434
1028 1 0.372616 0.348321 0.33696
70 1 0.489565 0.30182 0.387391
439 1 0.530839 0.343046 0.34081
1889 1 0.604652 0.318886 0.388484
311 1 0.78399 0.303731 0.365924
1425 1 0.911336 0.305458 0.366589
1603 1 0.0166435 0.381212 0.367415
1105 1 0.0825282 0.357572 0.38445
1340 1 0.26519 0.355767 0.348721
694 1 0.445869 0.36333 0.356021
1063 1 0.828814 0.361028 0.378208
1748 1 0.935538 0.381554 0.362838
870 1 0.0555081 0.44249 0.368529
449 1 0.130438 0.421211 0.338385
92 1 0.255022 0.436161 0.372998
591 1 0.350057 0.442909 0.365536
1199 1 0.422368 0.428855 0.369199
1938 1 0.504607 0.408148 0.339629
1684 1 0.579862 0.401365 0.354707
1343 1 0.712976 0.419623 0.361852
1278 1 0.879117 0.427314 0.386614
1605 1 0.00442953 0.499548 0.36999
2045 1 0.184217 0.467849 0.358696
1661 1 0.615321 0.488107 0.380315
614 1 0.786209 0.49741 0.347598
345 1 0.858232 0.498361 0.370966
1321 1 0.932796 0.489046 0.386377
1102 1 0.0882533 0.548856 0.360491
1336 1 0.177924 0.54996 0.35234
1211 1 0.360231 0.543541 0.347907
1243 1 0.427232 0.51158 0.371603
1663 1 0.507273 0.534251 0.36141
273 1 0.662296 0.548342 0.375607
1114 1 0.29641 0.5881 0.360166
64 1 0.550745 0.584073 0.333652
23 1 0.801524 0.572507 0.361601
166 1 0.0637381 0.615742 0.386201
980 1 0.466517 0.600232 0.37346
1919 1 0.68276 0.622435 0.384233
1230 1 0.874647 0.637302 0.3858
1785 1 0.0729372 0.692278 0.346413
1091 1 0.250501 0.659721 0.350114
609 1 0.32999 0.658301 0.378477
436 1 0.450211 0.682809 0.343449
1982 1 0.635897 0.699731 0.367904
412 1 0.736996 0.670728 0.364119
693 1 0.946494 0.655181 0.387717
40 1 0.00410392 0.743706 0.350512
1960 1 0.238411 0.732468 0.370385
41 1 0.308474 0.735121 0.349646
568 1 0.374042 0.718578 0.371901
215 1 0.534909 0.725158 0.35006
1084 1 0.929051 0.73982 0.373832
644 1 0.0718958 0.777592 0.381265
1918 1 0.143639 0.774532 0.370315
1855 1 0.218132 0.796225 0.346759
1201 1 0.374609 0.792249 0.379376
1599 1 0.461436 0.765666 0.38832
280 1 0.797379 0.784174 0.347964
1306 1 0.0939242 0.844929 0.348386
1767 1 0.474308 0.836875 0.368383
1270 1 0.550304 0.811449 0.351425
211 1 0.647529 0.820057 0.352689
1576 1 0.857793 0.846133 0.362891
1730 1 0.962122 0.839782 0.357017
1311 1 0.0297157 0.876634 0.359497
1349 1 0.267842 0.852197 0.361303
1453 1 0.526673 0.888039 0.354698
618 1 0.104984 0.919929 0.359293
1471 1 0.180022 0.913599 0.373887
1606 1 0.262819 0.932763 0.37993
1387 1 0.391004 0.931475 0.384409
903 1 0.663201 0.910821 0.359403
427 1 0.755895 0.904864 0.340191
943 1 0.837901 0.929083 0.384715
1837 1 0.979711 0.924219 0.382492
1388 1 0.0356905 0.975811 0.372844
416 1 0.134089 0.991054 0.376067
521 1 0.209012 0.99327 0.379337
872 1 0.327695 0.971781 0.352044
1710 1 0.462872 0.981337 0.385422
400 1 0.535204 0.961479 0.354806
1048 1 0.608658 0.993322 0.355211
832 1 0.688189 0.995667 0.341874
12 1 0.766339 0.982975 0.356261
611 1 0.150446 0.0272818 0.438493
849 1 0.2837 0.00389973 0.400248
1202 1 0.555825 0.0334188 0.422959
1777 1 0.658984 0.034182 0.421928
621 1 0.803817 0.0284982 0.408262
1324 1 0.86299 0.00734215 0.442976
1118 1 0.940272 0.00644835 0.405017
994 1 0.211548 0.0631457 0.418008
293 1 0.725093 0.0768527 0.42941
1692 1 0.826253 0.0927197 0.435805
780 1 0.995266 0.0652378 0.390909
321 1 0.00722252 0.114373 0.444355
1494 1 0.103476 0.113834 0.40544
668 1 0.315091 0.133651 0.422276
1671 1 0.43457 0.109546 0.440734
1421 1 0.513144 0.103155 0.418669
753 1 0.0351008 0.162936 0.399663
918 1 0.218183 0.158729 0.437649
54 1 0.419996 0.197247 0.43405
2017 1 0.574753 0.178797 0.429267
1041 1 0.653871 0.164303 0.410601
183 1 0.814728 0.162039 0.39523
382 1 0.962559 0.171247 0.412227
1678 1 0.0169594 0.235402 0.407271
1673 1 0.0960237 0.219081 0.431988
1366 1 0.17187 0.218818 0.401887
1302 1 0.334929 0.200722 0.438927
61 1 0.717607 0.215047 0.434101
1680 1 0.353542 0.298677 0.432434
756 1 0.539543 0.250006 0.429564
491 1 0.664025 0.266273 0.405576
846 1 0.729494 0.292978 0.424998
900 1 0.210652 0.300899 0.390934
201 1 0.282084 0.303073 0.431866
1467 1 0.878366 0.306742 0.437146
834 1 0.977131 0.32001 0.442916
1814 1 0.153108 0.373641 0.392524
1725 1 0.223335 0.353062 0.442437
1393 1 0.325212 0.365454 0.402162
398 1 0.399212 0.372196 0.427217
1528 1 0.467554 0.399866 0.425217
770 1 0.542376 0.378577 0.421879
435 1 0.67915 0.350806 0.40608
1666 1 0.757365 0.369683 0.396786
310 1 0.19069 0.418916 0.43397
692 1 0.307967 0.443116 0.422987
1990 1 0.674113 0.441994 0.439988
468 1 0.983792 0.438346 0.411644
1771 1 0.231465 0.499133 0.404379
1363 1 0.380516 0.451319 0.436867
1779 1 0.484124 0.467919 0.394959
1225 1 0.556995 0.45374 0.403949
1531 1 0.742629 0.483093 0.415085
1552 1 0.818822 0.45335 0.439984
1439 1 0.0659993 0.544848 0.431873
246 1 0.141526 0.503204 0.408828
871 1 0.304766 0.520053 0.393869
848 1 0.454576 0.546704 0.441149
837 1 0.572704 0.528756 0.423418
265 1 0.645697 0.517205 0.442014
1610 1 0.794723 0.54372 0.435373
19 1 0.869287 0.526802 0.44289
1741 1 0.00326821 0.56852 0.397144
1880 1 0.208719 0.59555 0.429042
1582 1 0.331273 0.585571 0.435059
138 1 0.60964 0.59106 0.405223
67 1 0.733815 0.566471 0.401353
1629 1 0.909644 0.562345 0.390066
1600 1 0.134548 0.602303 0.412287
1027 1 0.394856 0.616131 0.402506
1143 1 0.532548 0.613195 0.422507
1821 1 0.794908 0.622053 0.434666
195 1 0.0301378 0.683934 0.421082
1609 1 0.109967 0.698235 0.428592
1540 1 0.173824 0.684506 0.389022
140 1 0.236048 0.698343 0.431225
1774 1 0.486456 0.672614 0.40682
296 1 0.572175 0.685947 0.418777
1277 1 0.333737 0.74637 0.438349
312 1 0.421623 0.721343 0.435797
1842 1 0.513229 0.734592 0.435811