#     Step Nr.          Time[fs]        Kin.[a.u.]          Temp[K]            Pot.[a.u.]        Cons Qty[a.u.]        UsedTime[s]
         0            0.000000         0.275037913       300.000000000     -1103.025753687     -1102.750715774         0.000000000
         1            0.500000         0.277015845       302.157447425     -1103.028551074     -1102.750770615       113.959940389
         2            1.000000         0.268468834       292.834719803     -1103.035703237     -1102.750955565        18.135815892
         3            1.500000         0.275983505       301.031412990     -1103.046537973     -1102.751254735        54.068366483
         4            2.000000         0.272336137       297.053014572     -1103.053080835     -1102.751403340        29.100496050
         5            2.500000         0.290177932       316.514108382     -1103.058679789     -1102.751488785        37.635282367
         6            3.000000         0.315905397       344.576564696     -1103.060752919     -1102.751483603        19.696316771
         7            3.500000         0.311402119       339.664574887     -1103.057937159     -1102.751339568        23.475149050
         8            4.000000         0.302791732       330.272720593     -1103.052347839     -1102.751131678        15.763141688
         9            4.500000         0.295983122       322.846170118     -1103.046880817     -1102.750976947        16.582743049
        10            5.000000         0.291035037       317.449002552     -1103.043152696     -1102.750886016        26.213789277
        11            5.500000         0.306763943       334.605443667     -1103.047054841     -1102.750948030        22.000455778
        12            6.000000         0.308861419       336.893284531     -1103.051564449     -1102.751044822        29.081948549
        13            6.500000         0.300693238       327.983769333     -1103.058061906     -1102.751170095        29.084154002
        14            7.000000         0.298350723       325.428650704     -1103.063582150     -1102.751203528        29.861656487
        15            7.500000         0.305675726       333.418461551     -1103.066785412     -1102.751183592        25.998517770
        16            8.000000         0.317771901       346.612470503     -1103.072366165     -1102.751231796        18.926875066
        17            8.500000         0.312629578       341.003437106     -1103.076675209     -1102.751261378        16.520676676
        18            9.000000         0.301301814       328.647579005     -1103.081479829     -1102.751288071        14.224293467
        19            9.500000         0.303750326       331.318315044     -1103.083288618     -1102.751211920        12.638738774
        20           10.000000         0.310376804       338.546203511     -1103.086994964     -1102.751141435        14.259611070
        21           10.500000         0.320571154       349.665780045     -1103.092224778     -1102.751079255         9.556507170
        22           11.000000         0.315290263       343.905601493     -1103.098038533     -1102.751141867         8.757696278
        23           11.500000         0.326226175       355.834042933     -1103.104141210     -1102.751316340         8.775094073
        24           12.000000         0.320189542       349.249532896     -1103.107967653     -1102.751496468         8.753682215
        25           12.500000         0.296605997       323.525575870     -1103.106102632     -1102.751500053         8.729691461
        26           13.000000         0.280892402       306.385834925     -1103.100687060     -1102.751337737         8.777416144
        27           13.500000         0.288950288       315.175044758     -1103.094234576     -1102.751035736         8.792361800
        28           14.000000         0.281518435       307.068686134     -1103.094212091     -1102.750954869         8.763133291
        29           14.500000         0.285588116       311.507726416     -1103.101699478     -1102.751240245         8.742933605
        30           15.000000         0.301924326       329.326589665     -1103.108401460     -1102.751500595        10.977403618
        31           15.500000         0.321329981       350.493477443     -1103.112026854     -1102.751574522         8.764012191
        32           16.000000         0.314284244       342.808277696     -1103.112007737     -1102.751531334         8.789028201
        33           16.500000         0.292528794       319.078331088     -1103.108867507     -1102.751463907         8.797841571
        34           17.000000         0.302137747       329.559380496     -1103.107016604     -1102.751424721         8.754437160
        35           17.500000         0.295850088       322.701061898     -1103.105320070     -1102.751412541         8.765506338
        36           18.000000         0.294650924       321.393063114     -1103.106014860     -1102.751474934         8.776873864
        37           18.500000         0.309298099       337.369597369     -1103.105436728     -1102.751467902         8.785746951
        38           19.000000         0.287268794       313.340940741     -1103.103526064     -1102.751402450         8.768222012
        39           19.500000         0.293930304       320.607040642     -1103.105516639     -1102.751350975         8.732701935
        40           20.000000         0.290061567       316.387182310     -1103.113357232     -1102.751448344        11.157420281
        41           20.500000         0.312670244       341.047792967     -1103.123814896     -1102.751622481         8.010030068
        42           21.000000         0.317188346       345.975952595     -1103.132713997     -1102.751802394         8.003849331
        43           21.500000         0.314469652       343.010513424     -1103.138712670     -1102.751878386         7.966148410
        44           22.000000         0.302289314       329.724703259     -1103.143478980     -1102.751898412         7.989719525
        45           22.500000         0.304577209       332.220245284     -1103.145580860     -1102.751847265         8.000827089
        46           23.000000         0.303533678       331.082004279     -1103.147738272     -1102.751828791         7.985428855
        47           23.500000         0.303302858       330.830235016     -1103.152458712     -1102.751867009         7.977990780
        48           24.000000         0.318050805       346.916687284     -1103.157701756     -1102.751926777         8.016524691
        49           24.500000         0.311177611       339.419690808     -1103.161935737     -1102.751944097         7.999018662
        50           25.000000         0.312811885       341.202289452     -1103.165029421     -1102.751962554        10.230439808
        51           25.500000         0.307965375       335.915917130     -1103.166596887     -1102.751930979         8.007589124
        52           26.000000         0.300398217       327.661973118     -1103.170665640     -1102.751995291         7.997729767
        53           26.500000         0.310910700       339.128555254     -1103.172605008     -1102.752033922         7.989667390
        54           27.000000         0.314024031       342.524448653     -1103.173893927     -1102.752033268         7.976970028
        55           27.500000         0.302227871       329.657683686     -1103.174103373     -1102.751962482         8.029529974
        56           28.000000         0.288093452       314.240442933     -1103.175295458     -1102.751903276         7.980971217
        57           28.500000         0.301752275       329.138923165     -1103.176738782     -1102.751915775         7.981890585
        58           29.000000         0.300293357       327.547596626     -1103.174415301     -1102.751847026         7.980329439
        59           29.500000         0.304297880       331.915563984     -1103.172644910     -1102.751783098         7.971403025
        60           30.000000         0.302357439       329.799011989     -1103.172344911     -1102.751743375        10.732258338
        61           30.500000         0.310066462       338.207695622     -1103.175704603     -1102.751811539         7.978217531
        62           31.000000         0.319714462       348.731335851     -1103.176784934     -1102.751804758         7.990314294
        63           31.500000         0.325436752       354.972972847     -1103.177543288     -1102.751796762         8.009730604
        64           32.000000         0.331139300       361.193076876     -1103.177547880     -1102.751795234         8.000785694
        65           32.500000         0.328983429       358.841541907     -1103.176045033     -1102.751800993         7.999893345
        66           33.000000         0.330921486       360.955494505     -1103.170627700     -1102.751696317         7.965593088
        67           33.500000         0.336746812       367.309519798     -1103.168288963     -1102.751655912         8.019235309
        68           34.000000         0.340439475       371.337324334     -1103.167381588     -1102.751725918         7.969120286
        69           34.500000         0.344937920       376.244042209     -1103.166559253     -1102.751743399         8.043108691
        70           35.000000         0.350042759       381.812190236     -1103.164024145     -1102.751602516        10.698615905
        71           35.500000         0.338055603       368.737094760     -1103.161523308     -1102.751453722         7.192561053
        72           36.000000         0.333246656       363.491694070     -1103.164427462     -1102.751503141         8.003762633
        73           36.500000         0.331148039       361.202609829     -1103.167919948     -1102.751632669         7.970530529
        74           37.000000         0.311091180       339.325416018     -1103.171897375     -1102.751794541         7.996071994
        75           37.500000         0.323159707       352.489267101     -1103.175706577     -1102.751910567         8.003195114
        76           38.000000         0.319549496       348.551397435     -1103.176347962     -1102.751863766         8.031181466
        77           38.500000         0.299974459       327.199755091     -1103.175426981     -1102.751748105         8.028178163
        78           39.000000         0.303982548       331.571612973     -1103.174483701     -1102.751650304         7.972321011
        79           39.500000         0.303352216       330.884072981     -1103.174732662     -1102.751608059         7.968206026
        80           40.000000         0.297337911       324.323917422     -1103.176124421     -1102.751618868        10.881092995
        81           40.500000         0.314280690       342.804401689     -1103.179220449     -1102.751715736         8.042854652
        82           41.000000         0.301016280       328.336130533     -1103.181204812     -1102.751792511         7.988772191
        83           41.500000         0.303746462       331.314100268     -1103.182371768     -1102.751865676         7.996721141
        84           42.000000         0.305320504       333.031000891     -1103.182502630     -1102.751910814         8.002820730
        85           42.500000         0.300694657       327.985317424     -1103.178541747     -1102.751869508         7.995200619
        86           43.000000         0.292956449       319.544799750     -1103.177754711     -1102.751852627         8.010916755
        87           43.500000         0.286358003       312.347487275     -1103.179031139     -1102.751903990         8.013476714
        88           44.000000         0.299709828       326.911106755     -1103.180414056     -1102.751961331         7.978034146
        89           44.500000         0.302558040       330.017819020     -1103.180023639     -1102.751990952         7.991714377
        90           45.000000         0.302014640       329.425101011     -1103.177929074     -1102.751976354        11.654557467
        91           45.500000         0.306248413       334.043125648     -1103.175713979     -1102.751930441         8.022959992
        92           46.000000         0.302511560       329.967119942     -1103.172132504     -1102.751805527         7.989006761
        93           46.500000         0.275689915       300.711177849     -1103.168598841     -1102.751661504         7.983698741
        94           47.000000         0.267264526       291.521110394     -1103.167592809     -1102.751575772         7.992423162
        95           47.500000         0.290052076       316.376829139     -1103.173545048     -1102.751657858         8.026008930
        96           48.000000         0.294238445       320.943148586     -1103.181062708     -1102.751767592         7.978126362
        97           48.500000         0.301057144       328.380703712     -1103.188231698     -1102.751863053         7.990620479
        98           49.000000         0.298424550       325.509178129     -1103.192557434     -1102.751920452         7.991234958
        99           49.500000         0.303645494       331.203968644     -1103.192066581     -1102.751865723         7.998578746
       100           50.000000         0.265643956       289.753459521     -1103.189823072     -1102.751795312        11.568692680
       101           50.500000         0.275307978       300.294576367     -1103.188802781     -1102.751717128         8.008696280
       102           51.000000         0.286027528       311.987018678     -1103.188484600     -1102.751662709         8.006608311
       103           51.500000         0.283848085       309.609772515     -1103.186657713     -1102.751589559         7.987507500
       104           52.000000         0.277420028       302.598313302     -1103.187436065     -1102.751626499         7.982843798
       105           52.500000         0.283508745       309.239634393     -1103.190040142     -1102.751728540         7.969603203
       106           53.000000         0.282581687       308.228438182     -1103.194023038     -1102.751847536         7.991419293
       107           53.500000         0.292055837       318.562449181     -1103.197127217     -1102.751932145         7.188303288
       108           54.000000         0.291830730       318.316911650     -1103.199878708     -1102.752016719         7.222479127
       109           54.500000         0.299638422       326.833220516     -1103.201958446     -1102.752055547         7.248279389
       110           55.000000         0.292455592       318.998485463     -1103.200057763     -1102.751994239        11.467288382
       111           55.500000         0.294243255       320.948394328     -1103.196502984     -1102.751906462         7.218081210
       112           56.000000         0.306828014       334.675330626     -1103.193007619     -1102.751820440         7.996982735
       113           56.500000         0.287170170       313.233365260     -1103.189729182     -1102.751752805         7.982966263
       114           57.000000         0.286420746       312.415924260     -1103.189008840     -1102.751757967         7.999256235
       115           57.500000         0.297540923       324.545354778     -1103.189808453     -1102.751782603         8.002463166
       116           58.000000         0.293772848       320.435293566     -1103.189861118     -1102.751790753         8.087943811
       117           58.500000         0.273701210       298.541979884     -1103.192993462     -1102.751862297         7.233707666
       118           59.000000         0.287982985       314.119950508     -1103.195835321     -1102.751912013         7.221117470
       119           59.500000         0.299065962       326.208804065     -1103.196613569     -1102.751945642         7.241331048
       120           60.000000         0.294857192       321.618051974     -1103.195514292     -1102.751896202        10.365728151
       121           60.500000         0.281490083       307.037761019     -1103.195074030     -1102.751857151         7.200080331
       122           61.000000         0.289573359       315.854664420     -1103.196233724     -1102.751878759         7.192322705
       123           61.500000         0.289768021       316.066994439     -1103.199072892     -1102.751950461         7.256800510
       124           62.000000         0.295786457       322.631655696     -1103.199310396     -1102.751953474         7.244286276
       125           62.500000         0.297394898       324.386076407     -1103.199844098     -1102.751925168         7.215916224
       126           63.000000         0.300460778       327.730211729     -1103.199859561     -1102.751825242         7.225106280
       127           63.500000         0.316277061       344.981960910     -1103.202736064     -1102.751819881         7.199500032
       128           64.000000         0.315077861       343.673922610     -1103.203257196     -1102.751836483         7.212445315
       129           64.500000         0.314793590       343.363851321     -1103.204758633     -1102.751866825         7.228889413
       130           65.000000         0.327529456       357.255608227     -1103.206545732     -1102.751923289         9.832373340
       131           65.500000         0.303098052       330.606841542     -1103.206616685     -1102.751917578         7.225596871
       132           66.000000         0.303300987       330.828195192     -1103.205157953     -1102.751898742         7.225196701
       133           66.500000         0.308609589       336.618598295     -1103.199621244     -1102.751770389         7.202180453
       134           67.000000         0.302045103       329.458328639     -1103.195273847     -1102.751678139         7.213124670
       135           67.500000         0.297951648       324.993356595     -1103.192003303     -1102.751612057         7.219272997
       136           68.000000         0.296235581       323.121541443     -1103.189153948     -1102.751545173         7.235634696
       137           68.500000         0.295209262       322.002074979     -1103.188243275     -1102.751503919         7.206460509
       138           69.000000         0.282400642       308.030961570     -1103.188703076     -1102.751526397         7.210804481
       139           69.500000         0.281253842       306.780079398     -1103.192002189     -1102.751623709         7.227444537
       140           70.000000         0.302472686       329.924718495     -1103.197613159     -1102.751816153         9.926397789
       141           70.500000         0.302740582       330.216928205     -1103.200700415     -1102.751978480         7.254672352
       142           71.000000         0.308470756       336.467165266     -1103.198200900     -1102.752019555         7.994998515
       143           71.500000         0.283121892       308.817670813     -1103.190886179     -1102.751911854         7.219561797
       144           72.000000         0.287912517       314.043086790     -1103.183942586     -1102.751721327         7.217521761
       145           72.500000         0.291431524       317.881474797     -1103.175250557     -1102.751464557         7.262425784
       146           73.000000         0.272143190       296.842555711     -1103.172290020     -1102.751410827         7.979527641
       147           73.500000         0.274808665       299.749946497     -1103.173701956     -1102.751533254         7.239692163
       148           74.000000         0.279324464       304.675593293     -1103.177823722     -1102.751702170         7.214528311
       149           74.500000         0.288928696       315.151493157     -1103.181648077     -1102.751839664         7.205731463
       150           75.000000         0.292239741       318.763044314     -1103.185670118     -1102.751974523        10.531901382
       151           75.500000         0.305516547       333.244836060     -1103.188774548     -1102.752039702         7.273790892
       152           76.000000         0.297787673       324.814499902     -1103.187669380     -1102.751936960         7.971877992
       153           76.500000         0.282931334       308.609817903     -1103.184019018     -1102.751739875         7.987343255
       154           77.000000         0.274103433       298.980708110     -1103.180701385     -1102.751580793         7.225048210
       155           77.500000         0.261755772       285.512389415     -1103.183589631     -1102.751605801         7.219635889
       156           78.000000         0.270260492       294.788986799     -1103.188200757     -1102.751676095         7.237479046
       157           78.500000         0.269671910       294.146985462     -1103.197229790     -1102.751822909         7.998583779
       158           79.000000         0.296271624       323.160855658     -1103.205486425     -1102.751981916         8.021563396
       159           79.500000         0.301613640       328.987706271     -1103.209158013     -1102.752014531         7.208726685
       160           80.000000         0.301547201       328.915237007     -1103.207190309     -1102.751960566        10.526198879
       161           80.500000         0.284598466       310.428257134     -1103.203134448     -1102.751857278         8.032426596
       162           81.000000         0.273915799       298.776044898     -1103.196229245     -1102.751699884         7.212462422
       163           81.500000         0.288958181       315.183654188     -1103.191870758     -1102.751607869         7.212586332
       164           82.000000         0.284316055       310.120214626     -1103.188971727     -1102.751544730         7.996519160
       165           82.500000         0.293636404       320.286466398     -1103.187274406     -1102.751531104         8.021705668
       166           83.000000         0.291009104       317.420716367     -1103.189407582     -1102.751591972         8.051778182
       167           83.500000         0.283160199       308.859454955     -1103.190245043     -1102.751599298         7.991782516
       168           84.000000         0.296472359       323.379808967     -1103.191345885     -1102.751640850         8.005811296
       169           84.500000         0.284540729       310.365280361     -1103.190908122     -1102.751657087         8.000657417
       170           85.000000         0.291649246       318.118956912     -1103.189065810     -1102.751619663        11.314503431
       171           85.500000         0.270893231       295.479152802     -1103.186144777     -1102.751534556         8.020902734
       172           86.000000         0.263804168       287.746695659     -1103.185705975     -1102.751487446         7.998442437
       173           86.500000         0.277045099       302.189356146     -1103.189041769     -1102.751552427         8.003786609
       174           87.000000         0.284299483       310.102139125     -1103.193231359     -1102.751621609         7.995845664
       175           87.500000         0.271181848       295.793964238     -1103.197358638     -1102.751696958         8.001997370
       176           88.000000         0.273332948       298.140294937     -1103.201106406     -1102.751726331         8.017773893
       177           88.500000         0.285364821       311.264165565     -1103.205570233     -1102.751767495         7.223425839
       178           89.000000         0.290611199       316.986698230     -1103.207278037     -1102.751710501         7.243990287
       179           89.500000         0.298730130       325.842492970     -1103.209167085     -1102.751646630         7.227909938
       180           90.000000         0.299326679       326.493183997     -1103.211949735     -1102.751641887        10.855124693
       181           90.500000         0.318503543       347.410515176     -1103.216839557     -1102.751777231         8.017547283
       182           91.000000         0.303918392       331.501634863     -1103.222436047     -1102.751938928         7.998113710
       183           91.500000         0.309848807       337.970286826     -1103.224037852     -1102.751967262         7.210918117
       184           92.000000         0.298186755       325.249801720     -1103.223667897     -1102.751942101         7.997939408
       185           92.500000         0.287644567       313.750818583     -1103.221842878     -1102.751921316         8.022601843
       186           93.000000         0.288629063       314.824665709     -1103.218449786     -1102.751864669         8.008854348
       187           93.500000         0.278205647       303.455234151     -1103.214497432     -1102.751799294         7.993632663
       188           94.000000         0.282370179       307.997733776     -1103.211055806     -1102.751711726         7.249573316
       189           94.500000         0.275227458       300.206748566     -1103.209485404     -1102.751712470         7.977931898
       190           95.000000         0.263816397       287.760033696     -1103.206930504     -1102.751699209        10.471793897
       191           95.500000         0.270688063       295.255364022     -1103.206702997     -1102.751741412         7.222845078
       192           96.000000         0.254575350       277.680281615     -1103.209923037     -1102.751832278         7.213345658
       193           96.500000         0.273859853       298.715021413     -1103.208514526     -1102.751770977         7.227140728
       194           97.000000         0.273149121       297.939783789     -1103.207429659     -1102.751726234         7.986836649
       195           97.500000         0.272841916       297.604697941     -1103.206260022     -1102.751662198         7.212918419
       196           98.000000         0.268848490       293.248833912     -1103.204645474     -1102.751630691         7.236790065
       197           98.500000         0.267674254       291.968025468     -1103.205623573     -1102.751679704         8.024239130
       198           99.000000         0.260917207       284.597716976     -1103.206891820     -1102.751701702         7.234486196
       199           99.500000         0.262871691       286.729588309     -1103.206845548     -1102.751669350         7.991066158
       200          100.000000         0.268042031       292.369181374     -1103.205027328     -1102.751597653        10.369295344
       201          100.500000         0.261105863       284.803495740     -1103.202194234     -1102.751525302         7.999851018
       202          101.000000         0.263262776       287.156167388     -1103.202171802     -1102.751540369         8.009485301
       203          101.500000         0.274474225       299.385153419     -1103.201557606     -1102.751515749         7.998136409
       204          102.000000         0.279893012       305.295742155     -1103.203632319     -1102.751524602         7.987710811
       205          102.500000         0.276705642       301.819090594     -1103.206393659     -1102.751556475         8.013145365
       206          103.000000         0.286335321       312.322746163     -1103.211056354     -1102.751648298         8.010767095
       207          103.500000         0.278728305       304.025327920     -1103.215754291     -1102.751758413         8.001492444
       208          104.000000         0.285407499       311.310717029     -1103.217632843     -1102.751828113         7.990785040
       209          104.500000         0.291542362       318.002372108     -1103.218336055     -1102.751843781         7.193015222
       210          105.000000         0.287675897       313.784992048     -1103.217009276     -1102.751820591        10.971154541
       211          105.500000         0.268577924       292.953711528     -1103.214625796     -1102.751716441         7.345955662
       212          106.000000         0.258522306       281.985458355     -1103.213083382     -1102.751611989         7.219247796
       213          106.500000         0.267126666       291.370738836     -1103.214327309     -1102.751581852         7.219729818
       214          107.000000         0.287136472       313.196609490     -1103.217770382     -1102.751644284         7.212708957
       215          107.500000         0.291354390       317.797340328     -1103.223313816     -1102.751811183         7.221424200
       216          108.000000         0.292327884       318.859187132     -1103.229713747     -1102.751993474         7.244072441
       217          108.500000         0.301471350       328.832501729     -1103.232998922     -1102.752055192         7.227438793
       218          109.000000         0.282991459       308.675399682     -1103.231139106     -1102.751985481         7.231909901
       219          109.500000         0.274039328       298.910785385     -1103.227888693     -1102.751896799         8.010066442
       220          110.000000         0.285565068       311.482586305     -1103.226057972     -1102.751832779         9.821195383
       221          110.500000         0.281538669       307.090756533     -1103.227089680     -1102.751828743         7.966784921
       222          111.000000         0.273806744       298.657092279     -1103.228937989     -1102.751821411         7.212706193
       223          111.500000         0.273846570       298.700533222     -1103.231076305     -1102.751827137         7.242636874
       224          112.000000         0.266148013       290.303264239     -1103.231995456     -1102.751871674         7.259070612
       225          112.500000         0.268722802       293.111737771     -1103.235932832     -1102.751996032         7.285106704
       226          113.000000         0.282174579       307.784381570     -1103.237805393     -1102.752034307         7.227953725
       227          113.500000         0.285214634       311.100347090     -1103.238819833     -1102.751989705         7.225740142